+ 0.2 1 2 cbr 1000 ------- 23 1.0 2.0 0 0
- 0.2 1 2 cbr 1000 ------- 23 1.0 2.0 0 0
+ 0.2 0 1 tcp 40 ------- 14 0.0 3.0 0 1
- 0.2 0 1 tcp 40 ------- 14 0.0 3.0 0 1
+ 0.2 4 1 cbr 500 ------- 56 4.0 5.0 0 2
- 0.2 4 1 cbr 500 ------- 56 4.0 5.0 0 2
+ 0.201 1 2 cbr 1000 ------- 23 1.0 2.0 1 3
- 0.201 1 2 cbr 1000 ------- 23 1.0 2.0 1 3
+ 0.202 4 1 cbr 500 ------- 56 4.0 5.0 1 4
- 0.202 4 1 cbr 500 ------- 56 4.0 5.0 1 4
+ 0.202 1 2 cbr 1000 ------- 23 1.0 2.0 2 5
- 0.202 1 2 cbr 1000 ------- 23 1.0 2.0 2 5
+ 0.203 1 2 cbr 1000 ------- 23 1.0 2.0 3 6
- 0.203 1 2 cbr 1000 ------- 23 1.0 2.0 3 6
+ 0.204 4 1 cbr 500 ------- 56 4.0 5.0 2 7
- 0.204 4 1 cbr 500 ------- 56 4.0 5.0 2 7
+ 0.204 1 2 cbr 1000 ------- 23 1.0 2.0 4 8
- 0.204 1 2 cbr 1000 ------- 23 1.0 2.0 4 8
+ 0.205 1 2 cbr 1000 ------- 23 1.0 2.0 5 9
- 0.205 1 2 cbr 1000 ------- 23 1.0 2.0 5 9
+ 0.206 4 1 cbr 500 ------- 56 4.0 5.0 3 10
- 0.206 4 1 cbr 500 ------- 56 4.0 5.0 3 10
+ 0.206 1 2 cbr 1000 ------- 23 1.0 2.0 6 11
- 0.206 1 2 cbr 1000 ------- 23 1.0 2.0 6 11
+ 0.207 1 2 cbr 1000 ------- 23 1.0 2.0 7 12
- 0.207 1 2 cbr 1000 ------- 23 1.0 2.0 7 12
+ 0.208 4 1 cbr 500 ------- 56 4.0 5.0 4 13
- 0.208 4 1 cbr 500 ------- 56 4.0 5.0 4 13
+ 0.208 1 2 cbr 1000 ------- 23 1.0 2.0 8 14
- 0.208 1 2 cbr 1000 ------- 23 1.0 2.0 8 14
+ 0.209 1 2 cbr 1000 ------- 23 1.0 2.0 9 15
- 0.209 1 2 cbr 1000 ------- 23 1.0 2.0 9 15
+ 0.21 4 1 cbr 500 ------- 56 4.0 5.0 5 16
- 0.21 4 1 cbr 500 ------- 56 4.0 5.0 5 16
+ 0.21 1 2 cbr 1000 ------- 23 1.0 2.0 10 17
- 0.21 1 2 cbr 1000 ------- 23 1.0 2.0 10 17
r 0.210032 0 1 tcp 40 ------- 14 0.0 3.0 0 1
+ 0.210032 1 2 tcp 40 ------- 14 0.0 3.0 0 1
r 0.2104 4 1 cbr 500 ------- 56 4.0 5.0 0 2
+ 0.2104 1 2 cbr 500 ------- 56 4.0 5.0 0 2
r 0.2108 1 2 cbr 1000 ------- 23 1.0 2.0 0 0
- 0.2108 1 2 tcp 40 ------- 14 0.0 3.0 0 1
- 0.210832 1 2 cbr 500 ------- 56 4.0 5.0 0 2
+ 0.211 1 2 cbr 1000 ------- 23 1.0 2.0 11 18
- 0.211232 1 2 cbr 1000 ------- 23 1.0 2.0 11 18
r 0.2118 1 2 cbr 1000 ------- 23 1.0 2.0 1 3
+ 0.212 4 1 cbr 500 ------- 56 4.0 5.0 6 19
- 0.212 4 1 cbr 500 ------- 56 4.0 5.0 6 19
+ 0.212 1 2 cbr 1000 ------- 23 1.0 2.0 12 20
- 0.212032 1 2 cbr 1000 ------- 23 1.0 2.0 12 20
r 0.2124 4 1 cbr 500 ------- 56 4.0 5.0 1 4
+ 0.2124 1 2 cbr 500 ------- 56 4.0 5.0 1 4
r 0.2128 1 2 cbr 1000 ------- 23 1.0 2.0 2 5
- 0.212832 1 2 cbr 500 ------- 56 4.0 5.0 1 4
+ 0.213 1 2 cbr 1000 ------- 23 1.0 2.0 13 21
- 0.213232 1 2 cbr 1000 ------- 23 1.0 2.0 13 21
r 0.2138 1 2 cbr 1000 ------- 23 1.0 2.0 3 6
+ 0.214 4 1 cbr 500 ------- 56 4.0 5.0 7 22
- 0.214 4 1 cbr 500 ------- 56 4.0 5.0 7 22
+ 0.214 1 2 cbr 1000 ------- 23 1.0 2.0 14 23
- 0.214032 1 2 cbr 1000 ------- 23 1.0 2.0 14 23
r 0.2144 4 1 cbr 500 ------- 56 4.0 5.0 2 7
+ 0.2144 1 2 cbr 500 ------- 56 4.0 5.0 2 7
r 0.2148 1 2 cbr 1000 ------- 23 1.0 2.0 4 8
- 0.214832 1 2 cbr 500 ------- 56 4.0 5.0 2 7
+ 0.215 1 2 cbr 1000 ------- 23 1.0 2.0 15 24
- 0.215232 1 2 cbr 1000 ------- 23 1.0 2.0 15 24
r 0.2158 1 2 cbr 1000 ------- 23 1.0 2.0 5 9
+ 0.216 4 1 cbr 500 ------- 56 4.0 5.0 8 25
- 0.216 4 1 cbr 500 ------- 56 4.0 5.0 8 25
+ 0.216 1 2 cbr 1000 ------- 23 1.0 2.0 16 26
- 0.216032 1 2 cbr 1000 ------- 23 1.0 2.0 16 26
r 0.2164 4 1 cbr 500 ------- 56 4.0 5.0 3 10
+ 0.2164 1 2 cbr 500 ------- 56 4.0 5.0 3 10
r 0.2168 1 2 cbr 1000 ------- 23 1.0 2.0 6 11
- 0.216832 1 2 cbr 500 ------- 56 4.0 5.0 3 10
+ 0.217 1 2 cbr 1000 ------- 23 1.0 2.0 17 27
- 0.217232 1 2 cbr 1000 ------- 23 1.0 2.0 17 27
r 0.2178 1 2 cbr 1000 ------- 23 1.0 2.0 7 12
+ 0.218 4 1 cbr 500 ------- 56 4.0 5.0 9 28
- 0.218 4 1 cbr 500 ------- 56 4.0 5.0 9 28
+ 0.218 1 2 cbr 1000 ------- 23 1.0 2.0 18 29
- 0.218032 1 2 cbr 1000 ------- 23 1.0 2.0 18 29
r 0.2184 4 1 cbr 500 ------- 56 4.0 5.0 4 13
+ 0.2184 1 2 cbr 500 ------- 56 4.0 5.0 4 13
r 0.2188 1 2 cbr 1000 ------- 23 1.0 2.0 8 14
- 0.218832 1 2 cbr 500 ------- 56 4.0 5.0 4 13
+ 0.219 1 2 cbr 1000 ------- 23 1.0 2.0 19 30
- 0.219232 1 2 cbr 1000 ------- 23 1.0 2.0 19 30
r 0.2198 1 2 cbr 1000 ------- 23 1.0 2.0 9 15
+ 0.22 4 1 cbr 500 ------- 56 4.0 5.0 10 31
- 0.22 4 1 cbr 500 ------- 56 4.0 5.0 10 31
+ 0.22 1 2 cbr 1000 ------- 23 1.0 2.0 20 32
- 0.220032 1 2 cbr 1000 ------- 23 1.0 2.0 20 32
r 0.2204 4 1 cbr 500 ------- 56 4.0 5.0 5 16
+ 0.2204 1 2 cbr 500 ------- 56 4.0 5.0 5 16
r 0.2208 1 2 cbr 1000 ------- 23 1.0 2.0 10 17
r 0.220832 1 2 tcp 40 ------- 14 0.0 3.0 0 1
+ 0.220832 2 3 tcp 40 ------- 14 0.0 3.0 0 1
- 0.220832 2 3 tcp 40 ------- 14 0.0 3.0 0 1
- 0.220832 1 2 cbr 500 ------- 56 4.0 5.0 5 16
+ 0.221 1 2 cbr 1000 ------- 23 1.0 2.0 21 33
r 0.221232 1 2 cbr 500 ------- 56 4.0 5.0 0 2
+ 0.221232 2 5 cbr 500 ------- 56 4.0 5.0 0 2
- 0.221232 2 5 cbr 500 ------- 56 4.0 5.0 0 2
- 0.221232 1 2 cbr 1000 ------- 23 1.0 2.0 21 33
+ 0.222 4 1 cbr 500 ------- 56 4.0 5.0 11 34
- 0.222 4 1 cbr 500 ------- 56 4.0 5.0 11 34
+ 0.222 1 2 cbr 1000 ------- 23 1.0 2.0 22 35
r 0.222032 1 2 cbr 1000 ------- 23 1.0 2.0 11 18
- 0.222032 1 2 cbr 1000 ------- 23 1.0 2.0 22 35
r 0.2224 4 1 cbr 500 ------- 56 4.0 5.0 6 19
+ 0.2224 1 2 cbr 500 ------- 56 4.0 5.0 6 19
r 0.222832 1 2 cbr 1000 ------- 23 1.0 2.0 12 20
- 0.222832 1 2 cbr 500 ------- 56 4.0 5.0 6 19
+ 0.223 1 2 cbr 1000 ------- 23 1.0 2.0 23 36
r 0.223232 1 2 cbr 500 ------- 56 4.0 5.0 1 4
+ 0.223232 2 5 cbr 500 ------- 56 4.0 5.0 1 4
- 0.223232 2 5 cbr 500 ------- 56 4.0 5.0 1 4
- 0.223232 1 2 cbr 1000 ------- 23 1.0 2.0 23 36
+ 0.224 4 1 cbr 500 ------- 56 4.0 5.0 12 37
- 0.224 4 1 cbr 500 ------- 56 4.0 5.0 12 37
+ 0.224 1 2 cbr 1000 ------- 23 1.0 2.0 24 38
r 0.224032 1 2 cbr 1000 ------- 23 1.0 2.0 13 21
- 0.224032 1 2 cbr 1000 ------- 23 1.0 2.0 24 38
r 0.2244 4 1 cbr 500 ------- 56 4.0 5.0 7 22
+ 0.2244 1 2 cbr 500 ------- 56 4.0 5.0 7 22
r 0.224832 1 2 cbr 1000 ------- 23 1.0 2.0 14 23
- 0.224832 1 2 cbr 500 ------- 56 4.0 5.0 7 22
+ 0.225 1 2 cbr 1000 ------- 23 1.0 2.0 25 39
r 0.225232 1 2 cbr 500 ------- 56 4.0 5.0 2 7
+ 0.225232 2 5 cbr 500 ------- 56 4.0 5.0 2 7
- 0.225232 2 5 cbr 500 ------- 56 4.0 5.0 2 7
- 0.225232 1 2 cbr 1000 ------- 23 1.0 2.0 25 39
+ 0.226 4 1 cbr 500 ------- 56 4.0 5.0 13 40
- 0.226 4 1 cbr 500 ------- 56 4.0 5.0 13 40
+ 0.226 1 2 cbr 1000 ------- 23 1.0 2.0 26 41
r 0.226032 1 2 cbr 1000 ------- 23 1.0 2.0 15 24
- 0.226032 1 2 cbr 1000 ------- 23 1.0 2.0 26 41
r 0.2264 4 1 cbr 500 ------- 56 4.0 5.0 8 25
+ 0.2264 1 2 cbr 500 ------- 56 4.0 5.0 8 25
r 0.226832 1 2 cbr 1000 ------- 23 1.0 2.0 16 26
- 0.226832 1 2 cbr 500 ------- 56 4.0 5.0 8 25
+ 0.227 1 2 cbr 1000 ------- 23 1.0 2.0 27 42
r 0.227232 1 2 cbr 500 ------- 56 4.0 5.0 3 10
+ 0.227232 2 5 cbr 500 ------- 56 4.0 5.0 3 10
- 0.227232 2 5 cbr 500 ------- 56 4.0 5.0 3 10
- 0.227232 1 2 cbr 1000 ------- 23 1.0 2.0 27 42
+ 0.228 4 1 cbr 500 ------- 56 4.0 5.0 14 43
- 0.228 4 1 cbr 500 ------- 56 4.0 5.0 14 43
+ 0.228 1 2 cbr 1000 ------- 23 1.0 2.0 28 44
r 0.228032 1 2 cbr 1000 ------- 23 1.0 2.0 17 27
- 0.228032 1 2 cbr 1000 ------- 23 1.0 2.0 28 44
r 0.2284 4 1 cbr 500 ------- 56 4.0 5.0 9 28
+ 0.2284 1 2 cbr 500 ------- 56 4.0 5.0 9 28
r 0.228832 1 2 cbr 1000 ------- 23 1.0 2.0 18 29
- 0.228832 1 2 cbr 500 ------- 56 4.0 5.0 9 28
+ 0.229 1 2 cbr 1000 ------- 23 1.0 2.0 29 45
r 0.229232 1 2 cbr 500 ------- 56 4.0 5.0 4 13
+ 0.229232 2 5 cbr 500 ------- 56 4.0 5.0 4 13
- 0.229232 2 5 cbr 500 ------- 56 4.0 5.0 4 13
- 0.229232 1 2 cbr 1000 ------- 23 1.0 2.0 29 45
+ 0.23 4 1 cbr 500 ------- 56 4.0 5.0 15 46
- 0.23 4 1 cbr 500 ------- 56 4.0 5.0 15 46
+ 0.23 1 2 cbr 1000 ------- 23 1.0 2.0 30 47
r 0.230032 1 2 cbr 1000 ------- 23 1.0 2.0 19 30
- 0.230032 1 2 cbr 1000 ------- 23 1.0 2.0 30 47
r 0.2304 4 1 cbr 500 ------- 56 4.0 5.0 10 31
+ 0.2304 1 2 cbr 500 ------- 56 4.0 5.0 10 31
r 0.230832 1 2 cbr 1000 ------- 23 1.0 2.0 20 32
- 0.230832 1 2 cbr 500 ------- 56 4.0 5.0 10 31
r 0.230864 2 3 tcp 40 ------- 14 0.0 3.0 0 1
+ 0.230864 3 2 ack 40 ------- 14 3.0 0.0 0 48
- 0.230864 3 2 ack 40 ------- 14 3.0 0.0 0 48
+ 0.231 1 2 cbr 1000 ------- 23 1.0 2.0 31 49
r 0.231232 1 2 cbr 500 ------- 56 4.0 5.0 5 16
+ 0.231232 2 5 cbr 500 ------- 56 4.0 5.0 5 16
- 0.231232 2 5 cbr 500 ------- 56 4.0 5.0 5 16
- 0.231232 1 2 cbr 1000 ------- 23 1.0 2.0 31 49
r 0.231632 2 5 cbr 500 ------- 56 4.0 5.0 0 2
+ 0.232 4 1 cbr 500 ------- 56 4.0 5.0 16 50
- 0.232 4 1 cbr 500 ------- 56 4.0 5.0 16 50
+ 0.232 1 2 cbr 1000 ------- 23 1.0 2.0 32 51
r 0.232032 1 2 cbr 1000 ------- 23 1.0 2.0 21 33
- 0.232032 1 2 cbr 1000 ------- 23 1.0 2.0 32 51
r 0.2324 4 1 cbr 500 ------- 56 4.0 5.0 11 34
+ 0.2324 1 2 cbr 500 ------- 56 4.0 5.0 11 34
r 0.232832 1 2 cbr 1000 ------- 23 1.0 2.0 22 35
- 0.232832 1 2 cbr 500 ------- 56 4.0 5.0 11 34
+ 0.233 1 2 cbr 1000 ------- 23 1.0 2.0 33 52
r 0.233232 1 2 cbr 500 ------- 56 4.0 5.0 6 19
+ 0.233232 2 5 cbr 500 ------- 56 4.0 5.0 6 19
- 0.233232 2 5 cbr 500 ------- 56 4.0 5.0 6 19
- 0.233232 1 2 cbr 1000 ------- 23 1.0 2.0 33 52
r 0.233632 2 5 cbr 500 ------- 56 4.0 5.0 1 4
+ 0.234 4 1 cbr 500 ------- 56 4.0 5.0 17 53
- 0.234 4 1 cbr 500 ------- 56 4.0 5.0 17 53
+ 0.234 1 2 cbr 1000 ------- 23 1.0 2.0 34 54
r 0.234032 1 2 cbr 1000 ------- 23 1.0 2.0 23 36
- 0.234032 1 2 cbr 1000 ------- 23 1.0 2.0 34 54
r 0.2344 4 1 cbr 500 ------- 56 4.0 5.0 12 37
+ 0.2344 1 2 cbr 500 ------- 56 4.0 5.0 12 37
r 0.234832 1 2 cbr 1000 ------- 23 1.0 2.0 24 38
- 0.234832 1 2 cbr 500 ------- 56 4.0 5.0 12 37
+ 0.235 1 2 cbr 1000 ------- 23 1.0 2.0 35 55
r 0.235232 1 2 cbr 500 ------- 56 4.0 5.0 7 22
+ 0.235232 2 5 cbr 500 ------- 56 4.0 5.0 7 22
- 0.235232 2 5 cbr 500 ------- 56 4.0 5.0 7 22
- 0.235232 1 2 cbr 1000 ------- 23 1.0 2.0 35 55
r 0.235632 2 5 cbr 500 ------- 56 4.0 5.0 2 7
+ 0.236 4 1 cbr 500 ------- 56 4.0 5.0 18 56
- 0.236 4 1 cbr 500 ------- 56 4.0 5.0 18 56
+ 0.236 1 2 cbr 1000 ------- 23 1.0 2.0 36 57
r 0.236032 1 2 cbr 1000 ------- 23 1.0 2.0 25 39
- 0.236032 1 2 cbr 1000 ------- 23 1.0 2.0 36 57
r 0.2364 4 1 cbr 500 ------- 56 4.0 5.0 13 40
+ 0.2364 1 2 cbr 500 ------- 56 4.0 5.0 13 40
r 0.236832 1 2 cbr 1000 ------- 23 1.0 2.0 26 41
- 0.236832 1 2 cbr 500 ------- 56 4.0 5.0 13 40
+ 0.237 1 2 cbr 1000 ------- 23 1.0 2.0 37 58
r 0.237232 1 2 cbr 500 ------- 56 4.0 5.0 8 25
+ 0.237232 2 5 cbr 500 ------- 56 4.0 5.0 8 25
- 0.237232 2 5 cbr 500 ------- 56 4.0 5.0 8 25
- 0.237232 1 2 cbr 1000 ------- 23 1.0 2.0 37 58
r 0.237632 2 5 cbr 500 ------- 56 4.0 5.0 3 10
+ 0.238 4 1 cbr 500 ------- 56 4.0 5.0 19 59
- 0.238 4 1 cbr 500 ------- 56 4.0 5.0 19 59
+ 0.238 1 2 cbr 1000 ------- 23 1.0 2.0 38 60
r 0.238032 1 2 cbr 1000 ------- 23 1.0 2.0 27 42
- 0.238032 1 2 cbr 1000 ------- 23 1.0 2.0 38 60
r 0.2384 4 1 cbr 500 ------- 56 4.0 5.0 14 43
+ 0.2384 1 2 cbr 500 ------- 56 4.0 5.0 14 43
r 0.238832 1 2 cbr 1000 ------- 23 1.0 2.0 28 44
- 0.238832 1 2 cbr 500 ------- 56 4.0 5.0 14 43
+ 0.239 1 2 cbr 1000 ------- 23 1.0 2.0 39 61
r 0.239232 1 2 cbr 500 ------- 56 4.0 5.0 9 28
+ 0.239232 2 5 cbr 500 ------- 56 4.0 5.0 9 28
- 0.239232 2 5 cbr 500 ------- 56 4.0 5.0 9 28
- 0.239232 1 2 cbr 1000 ------- 23 1.0 2.0 39 61
r 0.239632 2 5 cbr 500 ------- 56 4.0 5.0 4 13
+ 0.24 4 1 cbr 500 ------- 56 4.0 5.0 20 62
- 0.24 4 1 cbr 500 ------- 56 4.0 5.0 20 62
+ 0.24 1 2 cbr 1000 ------- 23 1.0 2.0 40 63
r 0.240032 1 2 cbr 1000 ------- 23 1.0 2.0 29 45
- 0.240032 1 2 cbr 1000 ------- 23 1.0 2.0 40 63
r 0.2404 4 1 cbr 500 ------- 56 4.0 5.0 15 46
+ 0.2404 1 2 cbr 500 ------- 56 4.0 5.0 15 46
r 0.240832 1 2 cbr 1000 ------- 23 1.0 2.0 30 47
- 0.240832 1 2 cbr 500 ------- 56 4.0 5.0 15 46
r 0.240896 3 2 ack 40 ------- 14 3.0 0.0 0 48
+ 0.240896 2 1 ack 40 ------- 14 3.0 0.0 0 48
- 0.240896 2 1 ack 40 ------- 14 3.0 0.0 0 48
+ 0.241 1 2 cbr 1000 ------- 23 1.0 2.0 41 64
r 0.241232 1 2 cbr 500 ------- 56 4.0 5.0 10 31
+ 0.241232 2 5 cbr 500 ------- 56 4.0 5.0 10 31
- 0.241232 2 5 cbr 500 ------- 56 4.0 5.0 10 31
- 0.241232 1 2 cbr 1000 ------- 23 1.0 2.0 41 64
r 0.241632 2 5 cbr 500 ------- 56 4.0 5.0 5 16
+ 0.242 4 1 cbr 500 ------- 56 4.0 5.0 21 65
- 0.242 4 1 cbr 500 ------- 56 4.0 5.0 21 65
+ 0.242 1 2 cbr 1000 ------- 23 1.0 2.0 42 66
r 0.242032 1 2 cbr 1000 ------- 23 1.0 2.0 31 49
- 0.242032 1 2 cbr 1000 ------- 23 1.0 2.0 42 66
r 0.2424 4 1 cbr 500 ------- 56 4.0 5.0 16 50
+ 0.2424 1 2 cbr 500 ------- 56 4.0 5.0 16 50
r 0.242832 1 2 cbr 1000 ------- 23 1.0 2.0 32 51
- 0.242832 1 2 cbr 500 ------- 56 4.0 5.0 16 50
+ 0.243 1 2 cbr 1000 ------- 23 1.0 2.0 43 67
r 0.243232 1 2 cbr 500 ------- 56 4.0 5.0 11 34
+ 0.243232 2 5 cbr 500 ------- 56 4.0 5.0 11 34
- 0.243232 2 5 cbr 500 ------- 56 4.0 5.0 11 34
- 0.243232 1 2 cbr 1000 ------- 23 1.0 2.0 43 67
r 0.243632 2 5 cbr 500 ------- 56 4.0 5.0 6 19
+ 0.244 4 1 cbr 500 ------- 56 4.0 5.0 22 68
- 0.244 4 1 cbr 500 ------- 56 4.0 5.0 22 68
+ 0.244 1 2 cbr 1000 ------- 23 1.0 2.0 44 69
r 0.244032 1 2 cbr 1000 ------- 23 1.0 2.0 33 52
- 0.244032 1 2 cbr 1000 ------- 23 1.0 2.0 44 69
r 0.2444 4 1 cbr 500 ------- 56 4.0 5.0 17 53
+ 0.2444 1 2 cbr 500 ------- 56 4.0 5.0 17 53
r 0.244832 1 2 cbr 1000 ------- 23 1.0 2.0 34 54
- 0.244832 1 2 cbr 500 ------- 56 4.0 5.0 17 53
+ 0.245 1 2 cbr 1000 ------- 23 1.0 2.0 45 70
r 0.245232 1 2 cbr 500 ------- 56 4.0 5.0 12 37
+ 0.245232 2 5 cbr 500 ------- 56 4.0 5.0 12 37
- 0.245232 2 5 cbr 500 ------- 56 4.0 5.0 12 37
- 0.245232 1 2 cbr 1000 ------- 23 1.0 2.0 45 70
r 0.245632 2 5 cbr 500 ------- 56 4.0 5.0 7 22
+ 0.246 4 1 cbr 500 ------- 56 4.0 5.0 23 71
- 0.246 4 1 cbr 500 ------- 56 4.0 5.0 23 71
+ 0.246 1 2 cbr 1000 ------- 23 1.0 2.0 46 72
r 0.246032 1 2 cbr 1000 ------- 23 1.0 2.0 35 55
- 0.246032 1 2 cbr 1000 ------- 23 1.0 2.0 46 72
r 0.2464 4 1 cbr 500 ------- 56 4.0 5.0 18 56
+ 0.2464 1 2 cbr 500 ------- 56 4.0 5.0 18 56
r 0.246832 1 2 cbr 1000 ------- 23 1.0 2.0 36 57
- 0.246832 1 2 cbr 500 ------- 56 4.0 5.0 18 56
+ 0.247 1 2 cbr 1000 ------- 23 1.0 2.0 47 73
r 0.247232 1 2 cbr 500 ------- 56 4.0 5.0 13 40
+ 0.247232 2 5 cbr 500 ------- 56 4.0 5.0 13 40
- 0.247232 2 5 cbr 500 ------- 56 4.0 5.0 13 40
- 0.247232 1 2 cbr 1000 ------- 23 1.0 2.0 47 73
r 0.247632 2 5 cbr 500 ------- 56 4.0 5.0 8 25
+ 0.248 4 1 cbr 500 ------- 56 4.0 5.0 24 74
- 0.248 4 1 cbr 500 ------- 56 4.0 5.0 24 74
+ 0.248 1 2 cbr 1000 ------- 23 1.0 2.0 48 75
r 0.248032 1 2 cbr 1000 ------- 23 1.0 2.0 37 58
- 0.248032 1 2 cbr 1000 ------- 23 1.0 2.0 48 75
r 0.2484 4 1 cbr 500 ------- 56 4.0 5.0 19 59
+ 0.2484 1 2 cbr 500 ------- 56 4.0 5.0 19 59
r 0.248832 1 2 cbr 1000 ------- 23 1.0 2.0 38 60
- 0.248832 1 2 cbr 500 ------- 56 4.0 5.0 19 59
+ 0.249 1 2 cbr 1000 ------- 23 1.0 2.0 49 76
r 0.249232 1 2 cbr 500 ------- 56 4.0 5.0 14 43
+ 0.249232 2 5 cbr 500 ------- 56 4.0 5.0 14 43
- 0.249232 2 5 cbr 500 ------- 56 4.0 5.0 14 43
- 0.249232 1 2 cbr 1000 ------- 23 1.0 2.0 49 76
r 0.249632 2 5 cbr 500 ------- 56 4.0 5.0 9 28
+ 0.25 4 1 cbr 500 ------- 56 4.0 5.0 25 77
- 0.25 4 1 cbr 500 ------- 56 4.0 5.0 25 77
+ 0.25 1 2 cbr 1000 ------- 23 1.0 2.0 50 78
r 0.250032 1 2 cbr 1000 ------- 23 1.0 2.0 39 61
- 0.250032 1 2 cbr 1000 ------- 23 1.0 2.0 50 78
r 0.2504 4 1 cbr 500 ------- 56 4.0 5.0 20 62
+ 0.2504 1 2 cbr 500 ------- 56 4.0 5.0 20 62
r 0.250832 1 2 cbr 1000 ------- 23 1.0 2.0 40 63
- 0.250832 1 2 cbr 500 ------- 56 4.0 5.0 20 62
r 0.250928 2 1 ack 40 ------- 14 3.0 0.0 0 48
+ 0.250928 1 0 ack 40 ------- 14 3.0 0.0 0 48
- 0.250928 1 0 ack 40 ------- 14 3.0 0.0 0 48
+ 0.251 1 2 cbr 1000 ------- 23 1.0 2.0 51 79
r 0.251232 1 2 cbr 500 ------- 56 4.0 5.0 15 46
+ 0.251232 2 5 cbr 500 ------- 56 4.0 5.0 15 46
- 0.251232 2 5 cbr 500 ------- 56 4.0 5.0 15 46
- 0.251232 1 2 cbr 1000 ------- 23 1.0 2.0 51 79
r 0.251632 2 5 cbr 500 ------- 56 4.0 5.0 10 31
+ 0.252 4 1 cbr 500 ------- 56 4.0 5.0 26 80
- 0.252 4 1 cbr 500 ------- 56 4.0 5.0 26 80
+ 0.252 1 2 cbr 1000 ------- 23 1.0 2.0 52 81
r 0.252032 1 2 cbr 1000 ------- 23 1.0 2.0 41 64
- 0.252032 1 2 cbr 1000 ------- 23 1.0 2.0 52 81
r 0.2524 4 1 cbr 500 ------- 56 4.0 5.0 21 65
+ 0.2524 1 2 cbr 500 ------- 56 4.0 5.0 21 65
r 0.252832 1 2 cbr 1000 ------- 23 1.0 2.0 42 66
- 0.252832 1 2 cbr 500 ------- 56 4.0 5.0 21 65
+ 0.253 1 2 cbr 1000 ------- 23 1.0 2.0 53 82
r 0.253232 1 2 cbr 500 ------- 56 4.0 5.0 16 50
+ 0.253232 2 5 cbr 500 ------- 56 4.0 5.0 16 50
- 0.253232 2 5 cbr 500 ------- 56 4.0 5.0 16 50
- 0.253232 1 2 cbr 1000 ------- 23 1.0 2.0 53 82
r 0.253632 2 5 cbr 500 ------- 56 4.0 5.0 11 34
+ 0.254 4 1 cbr 500 ------- 56 4.0 5.0 27 83
- 0.254 4 1 cbr 500 ------- 56 4.0 5.0 27 83
+ 0.254 1 2 cbr 1000 ------- 23 1.0 2.0 54 84
r 0.254032 1 2 cbr 1000 ------- 23 1.0 2.0 43 67
- 0.254032 1 2 cbr 1000 ------- 23 1.0 2.0 54 84
r 0.2544 4 1 cbr 500 ------- 56 4.0 5.0 22 68
+ 0.2544 1 2 cbr 500 ------- 56 4.0 5.0 22 68
r 0.254832 1 2 cbr 1000 ------- 23 1.0 2.0 44 69
- 0.254832 1 2 cbr 500 ------- 56 4.0 5.0 22 68
+ 0.255 1 2 cbr 1000 ------- 23 1.0 2.0 55 85
r 0.255232 1 2 cbr 500 ------- 56 4.0 5.0 17 53
+ 0.255232 2 5 cbr 500 ------- 56 4.0 5.0 17 53
- 0.255232 2 5 cbr 500 ------- 56 4.0 5.0 17 53
- 0.255232 1 2 cbr 1000 ------- 23 1.0 2.0 55 85
r 0.255632 2 5 cbr 500 ------- 56 4.0 5.0 12 37
+ 0.256 4 1 cbr 500 ------- 56 4.0 5.0 28 86
- 0.256 4 1 cbr 500 ------- 56 4.0 5.0 28 86
+ 0.256 1 2 cbr 1000 ------- 23 1.0 2.0 56 87
r 0.256032 1 2 cbr 1000 ------- 23 1.0 2.0 45 70
- 0.256032 1 2 cbr 1000 ------- 23 1.0 2.0 56 87
r 0.2564 4 1 cbr 500 ------- 56 4.0 5.0 23 71
+ 0.2564 1 2 cbr 500 ------- 56 4.0 5.0 23 71
r 0.256832 1 2 cbr 1000 ------- 23 1.0 2.0 46 72
- 0.256832 1 2 cbr 500 ------- 56 4.0 5.0 23 71
+ 0.257 1 2 cbr 1000 ------- 23 1.0 2.0 57 88
r 0.257232 1 2 cbr 500 ------- 56 4.0 5.0 18 56
+ 0.257232 2 5 cbr 500 ------- 56 4.0 5.0 18 56
- 0.257232 2 5 cbr 500 ------- 56 4.0 5.0 18 56
- 0.257232 1 2 cbr 1000 ------- 23 1.0 2.0 57 88
r 0.257632 2 5 cbr 500 ------- 56 4.0 5.0 13 40
+ 0.258 4 1 cbr 500 ------- 56 4.0 5.0 29 89
- 0.258 4 1 cbr 500 ------- 56 4.0 5.0 29 89
+ 0.258 1 2 cbr 1000 ------- 23 1.0 2.0 58 90
r 0.258032 1 2 cbr 1000 ------- 23 1.0 2.0 47 73
- 0.258032 1 2 cbr 1000 ------- 23 1.0 2.0 58 90
r 0.2584 4 1 cbr 500 ------- 56 4.0 5.0 24 74
+ 0.2584 1 2 cbr 500 ------- 56 4.0 5.0 24 74
r 0.258832 1 2 cbr 1000 ------- 23 1.0 2.0 48 75
- 0.258832 1 2 cbr 500 ------- 56 4.0 5.0 24 74
+ 0.259 1 2 cbr 1000 ------- 23 1.0 2.0 59 91
r 0.259232 1 2 cbr 500 ------- 56 4.0 5.0 19 59
+ 0.259232 2 5 cbr 500 ------- 56 4.0 5.0 19 59
- 0.259232 2 5 cbr 500 ------- 56 4.0 5.0 19 59
- 0.259232 1 2 cbr 1000 ------- 23 1.0 2.0 59 91
r 0.259632 2 5 cbr 500 ------- 56 4.0 5.0 14 43
+ 0.26 4 1 cbr 500 ------- 56 4.0 5.0 30 92
- 0.26 4 1 cbr 500 ------- 56 4.0 5.0 30 92
+ 0.26 1 2 cbr 1000 ------- 23 1.0 2.0 60 93
r 0.260032 1 2 cbr 1000 ------- 23 1.0 2.0 49 76
- 0.260032 1 2 cbr 1000 ------- 23 1.0 2.0 60 93
r 0.2604 4 1 cbr 500 ------- 56 4.0 5.0 25 77
+ 0.2604 1 2 cbr 500 ------- 56 4.0 5.0 25 77
r 0.260832 1 2 cbr 1000 ------- 23 1.0 2.0 50 78
- 0.260832 1 2 cbr 500 ------- 56 4.0 5.0 25 77
r 0.26096 1 0 ack 40 ------- 14 3.0 0.0 0 48
+ 0.26096 0 1 tcp 1040 ------- 14 0.0 3.0 1 94
- 0.26096 0 1 tcp 1040 ------- 14 0.0 3.0 1 94
+ 0.26096 0 1 tcp 1040 ------- 14 0.0 3.0 2 95
+ 0.261 1 2 cbr 1000 ------- 23 1.0 2.0 61 96
r 0.261232 1 2 cbr 500 ------- 56 4.0 5.0 20 62
+ 0.261232 2 5 cbr 500 ------- 56 4.0 5.0 20 62
- 0.261232 2 5 cbr 500 ------- 56 4.0 5.0 20 62
- 0.261232 1 2 cbr 1000 ------- 23 1.0 2.0 61 96
r 0.261632 2 5 cbr 500 ------- 56 4.0 5.0 15 46
- 0.261792 0 1 tcp 1040 ------- 14 0.0 3.0 2 95
+ 0.262 4 1 cbr 500 ------- 56 4.0 5.0 31 97
- 0.262 4 1 cbr 500 ------- 56 4.0 5.0 31 97
+ 0.262 1 2 cbr 1000 ------- 23 1.0 2.0 62 98
r 0.262032 1 2 cbr 1000 ------- 23 1.0 2.0 51 79
- 0.262032 1 2 cbr 1000 ------- 23 1.0 2.0 62 98
r 0.2624 4 1 cbr 500 ------- 56 4.0 5.0 26 80
+ 0.2624 1 2 cbr 500 ------- 56 4.0 5.0 26 80
r 0.262832 1 2 cbr 1000 ------- 23 1.0 2.0 52 81
- 0.262832 1 2 cbr 500 ------- 56 4.0 5.0 26 80
+ 0.263 1 2 cbr 1000 ------- 23 1.0 2.0 63 99
r 0.263232 1 2 cbr 500 ------- 56 4.0 5.0 21 65
+ 0.263232 2 5 cbr 500 ------- 56 4.0 5.0 21 65
- 0.263232 2 5 cbr 500 ------- 56 4.0 5.0 21 65
- 0.263232 1 2 cbr 1000 ------- 23 1.0 2.0 63 99
r 0.263632 2 5 cbr 500 ------- 56 4.0 5.0 16 50
+ 0.264 4 1 cbr 500 ------- 56 4.0 5.0 32 100
- 0.264 4 1 cbr 500 ------- 56 4.0 5.0 32 100
+ 0.264 1 2 cbr 1000 ------- 23 1.0 2.0 64 101
r 0.264032 1 2 cbr 1000 ------- 23 1.0 2.0 53 82
- 0.264032 1 2 cbr 1000 ------- 23 1.0 2.0 64 101
r 0.2644 4 1 cbr 500 ------- 56 4.0 5.0 27 83
+ 0.2644 1 2 cbr 500 ------- 56 4.0 5.0 27 83
r 0.264832 1 2 cbr 1000 ------- 23 1.0 2.0 54 84
- 0.264832 1 2 cbr 500 ------- 56 4.0 5.0 27 83
+ 0.265 1 2 cbr 1000 ------- 23 1.0 2.0 65 102
r 0.265232 1 2 cbr 500 ------- 56 4.0 5.0 22 68
+ 0.265232 2 5 cbr 500 ------- 56 4.0 5.0 22 68
- 0.265232 2 5 cbr 500 ------- 56 4.0 5.0 22 68
- 0.265232 1 2 cbr 1000 ------- 23 1.0 2.0 65 102
r 0.265632 2 5 cbr 500 ------- 56 4.0 5.0 17 53
+ 0.266 4 1 cbr 500 ------- 56 4.0 5.0 33 103
- 0.266 4 1 cbr 500 ------- 56 4.0 5.0 33 103
+ 0.266 1 2 cbr 1000 ------- 23 1.0 2.0 66 104
r 0.266032 1 2 cbr 1000 ------- 23 1.0 2.0 55 85
- 0.266032 1 2 cbr 1000 ------- 23 1.0 2.0 66 104
r 0.2664 4 1 cbr 500 ------- 56 4.0 5.0 28 86
+ 0.2664 1 2 cbr 500 ------- 56 4.0 5.0 28 86
r 0.266832 1 2 cbr 1000 ------- 23 1.0 2.0 56 87
- 0.266832 1 2 cbr 500 ------- 56 4.0 5.0 28 86
+ 0.267 1 2 cbr 1000 ------- 23 1.0 2.0 67 105
r 0.267232 1 2 cbr 500 ------- 56 4.0 5.0 23 71
+ 0.267232 2 5 cbr 500 ------- 56 4.0 5.0 23 71
- 0.267232 2 5 cbr 500 ------- 56 4.0 5.0 23 71
- 0.267232 1 2 cbr 1000 ------- 23 1.0 2.0 67 105
r 0.267632 2 5 cbr 500 ------- 56 4.0 5.0 18 56
+ 0.268 4 1 cbr 500 ------- 56 4.0 5.0 34 106
- 0.268 4 1 cbr 500 ------- 56 4.0 5.0 34 106
+ 0.268 1 2 cbr 1000 ------- 23 1.0 2.0 68 107
r 0.268032 1 2 cbr 1000 ------- 23 1.0 2.0 57 88
- 0.268032 1 2 cbr 1000 ------- 23 1.0 2.0 68 107
r 0.2684 4 1 cbr 500 ------- 56 4.0 5.0 29 89
+ 0.2684 1 2 cbr 500 ------- 56 4.0 5.0 29 89
r 0.268832 1 2 cbr 1000 ------- 23 1.0 2.0 58 90
- 0.268832 1 2 cbr 500 ------- 56 4.0 5.0 29 89
+ 0.269 1 2 cbr 1000 ------- 23 1.0 2.0 69 108
r 0.269232 1 2 cbr 500 ------- 56 4.0 5.0 24 74
+ 0.269232 2 5 cbr 500 ------- 56 4.0 5.0 24 74
- 0.269232 2 5 cbr 500 ------- 56 4.0 5.0 24 74
- 0.269232 1 2 cbr 1000 ------- 23 1.0 2.0 69 108
r 0.269632 2 5 cbr 500 ------- 56 4.0 5.0 19 59
+ 0.27 4 1 cbr 500 ------- 56 4.0 5.0 35 109
- 0.27 4 1 cbr 500 ------- 56 4.0 5.0 35 109
+ 0.27 1 2 cbr 1000 ------- 23 1.0 2.0 70 110
r 0.270032 1 2 cbr 1000 ------- 23 1.0 2.0 59 91
- 0.270032 1 2 cbr 1000 ------- 23 1.0 2.0 70 110
r 0.2704 4 1 cbr 500 ------- 56 4.0 5.0 30 92
+ 0.2704 1 2 cbr 500 ------- 56 4.0 5.0 30 92
r 0.270832 1 2 cbr 1000 ------- 23 1.0 2.0 60 93
- 0.270832 1 2 cbr 500 ------- 56 4.0 5.0 30 92
+ 0.271 1 2 cbr 1000 ------- 23 1.0 2.0 71 111
r 0.271232 1 2 cbr 500 ------- 56 4.0 5.0 25 77
+ 0.271232 2 5 cbr 500 ------- 56 4.0 5.0 25 77
- 0.271232 2 5 cbr 500 ------- 56 4.0 5.0 25 77
- 0.271232 1 2 cbr 1000 ------- 23 1.0 2.0 71 111
r 0.271632 2 5 cbr 500 ------- 56 4.0 5.0 20 62
r 0.271792 0 1 tcp 1040 ------- 14 0.0 3.0 1 94
+ 0.271792 1 2 tcp 1040 ------- 14 0.0 3.0 1 94
+ 0.272 4 1 cbr 500 ------- 56 4.0 5.0 36 112
- 0.272 4 1 cbr 500 ------- 56 4.0 5.0 36 112
+ 0.272 1 2 cbr 1000 ------- 23 1.0 2.0 72 113
r 0.272032 1 2 cbr 1000 ------- 23 1.0 2.0 61 96
- 0.272032 1 2 tcp 1040 ------- 14 0.0 3.0 1 94
r 0.2724 4 1 cbr 500 ------- 56 4.0 5.0 31 97
+ 0.2724 1 2 cbr 500 ------- 56 4.0 5.0 31 97
r 0.272624 0 1 tcp 1040 ------- 14 0.0 3.0 2 95
+ 0.272624 1 2 tcp 1040 ------- 14 0.0 3.0 2 95
r 0.272832 1 2 cbr 1000 ------- 23 1.0 2.0 62 98
- 0.272864 1 2 cbr 1000 ------- 23 1.0 2.0 72 113
+ 0.273 1 2 cbr 1000 ------- 23 1.0 2.0 73 114
r 0.273232 1 2 cbr 500 ------- 56 4.0 5.0 26 80
+ 0.273232 2 5 cbr 500 ------- 56 4.0 5.0 26 80
- 0.273232 2 5 cbr 500 ------- 56 4.0 5.0 26 80
r 0.273632 2 5 cbr 500 ------- 56 4.0 5.0 21 65
- 0.273664 1 2 cbr 500 ------- 56 4.0 5.0 31 97
+ 0.274 4 1 cbr 500 ------- 56 4.0 5.0 37 115
- 0.274 4 1 cbr 500 ------- 56 4.0 5.0 37 115
+ 0.274 1 2 cbr 1000 ------- 23 1.0 2.0 74 116
r 0.274032 1 2 cbr 1000 ------- 23 1.0 2.0 63 99
- 0.274064 1 2 tcp 1040 ------- 14 0.0 3.0 2 95
r 0.2744 4 1 cbr 500 ------- 56 4.0 5.0 32 100
+ 0.2744 1 2 cbr 500 ------- 56 4.0 5.0 32 100
r 0.274832 1 2 cbr 1000 ------- 23 1.0 2.0 64 101
- 0.274896 1 2 cbr 1000 ------- 23 1.0 2.0 73 114
+ 0.275 1 2 cbr 1000 ------- 23 1.0 2.0 75 117
r 0.275232 1 2 cbr 500 ------- 56 4.0 5.0 27 83
+ 0.275232 2 5 cbr 500 ------- 56 4.0 5.0 27 83
- 0.275232 2 5 cbr 500 ------- 56 4.0 5.0 27 83
r 0.275632 2 5 cbr 500 ------- 56 4.0 5.0 22 68
- 0.275696 1 2 cbr 1000 ------- 23 1.0 2.0 74 116
+ 0.276 4 1 cbr 500 ------- 56 4.0 5.0 38 118
- 0.276 4 1 cbr 500 ------- 56 4.0 5.0 38 118
+ 0.276 1 2 cbr 1000 ------- 23 1.0 2.0 76 119
r 0.276032 1 2 cbr 1000 ------- 23 1.0 2.0 65 102
r 0.2764 4 1 cbr 500 ------- 56 4.0 5.0 33 103
+ 0.2764 1 2 cbr 500 ------- 56 4.0 5.0 33 103
- 0.276496 1 2 cbr 500 ------- 56 4.0 5.0 32 100
r 0.276832 1 2 cbr 1000 ------- 23 1.0 2.0 66 104
- 0.276896 1 2 cbr 1000 ------- 23 1.0 2.0 75 117
+ 0.277 1 2 cbr 1000 ------- 23 1.0 2.0 77 120
r 0.277232 1 2 cbr 500 ------- 56 4.0 5.0 28 86
+ 0.277232 2 5 cbr 500 ------- 56 4.0 5.0 28 86
- 0.277232 2 5 cbr 500 ------- 56 4.0 5.0 28 86
r 0.277632 2 5 cbr 500 ------- 56 4.0 5.0 23 71
- 0.277696 1 2 cbr 1000 ------- 23 1.0 2.0 76 119
+ 0.278 4 1 cbr 500 ------- 56 4.0 5.0 39 121
- 0.278 4 1 cbr 500 ------- 56 4.0 5.0 39 121
+ 0.278 1 2 cbr 1000 ------- 23 1.0 2.0 78 122
r 0.278032 1 2 cbr 1000 ------- 23 1.0 2.0 67 105
r 0.2784 4 1 cbr 500 ------- 56 4.0 5.0 34 106
+ 0.2784 1 2 cbr 500 ------- 56 4.0 5.0 34 106
- 0.278496 1 2 cbr 500 ------- 56 4.0 5.0 33 103
r 0.278832 1 2 cbr 1000 ------- 23 1.0 2.0 68 107
- 0.278896 1 2 cbr 1000 ------- 23 1.0 2.0 77 120
+ 0.279 1 2 cbr 1000 ------- 23 1.0 2.0 79 123
r 0.279232 1 2 cbr 500 ------- 56 4.0 5.0 29 89
+ 0.279232 2 5 cbr 500 ------- 56 4.0 5.0 29 89
- 0.279232 2 5 cbr 500 ------- 56 4.0 5.0 29 89
r 0.279632 2 5 cbr 500 ------- 56 4.0 5.0 24 74
- 0.279696 1 2 cbr 1000 ------- 23 1.0 2.0 78 122
+ 0.28 4 1 cbr 500 ------- 56 4.0 5.0 40 124
- 0.28 4 1 cbr 500 ------- 56 4.0 5.0 40 124
+ 0.28 1 2 cbr 1000 ------- 23 1.0 2.0 80 125
r 0.280032 1 2 cbr 1000 ------- 23 1.0 2.0 69 108
r 0.2804 4 1 cbr 500 ------- 56 4.0 5.0 35 109
+ 0.2804 1 2 cbr 500 ------- 56 4.0 5.0 35 109
- 0.280496 1 2 cbr 500 ------- 56 4.0 5.0 34 106
r 0.280832 1 2 cbr 1000 ------- 23 1.0 2.0 70 110
- 0.280896 1 2 cbr 1000 ------- 23 1.0 2.0 79 123
+ 0.281 1 2 cbr 1000 ------- 23 1.0 2.0 81 126
r 0.281232 1 2 cbr 500 ------- 56 4.0 5.0 30 92
+ 0.281232 2 5 cbr 500 ------- 56 4.0 5.0 30 92
- 0.281232 2 5 cbr 500 ------- 56 4.0 5.0 30 92
r 0.281632 2 5 cbr 500 ------- 56 4.0 5.0 25 77
- 0.281696 1 2 cbr 1000 ------- 23 1.0 2.0 80 125
+ 0.282 4 1 cbr 500 ------- 56 4.0 5.0 41 127
- 0.282 4 1 cbr 500 ------- 56 4.0 5.0 41 127
+ 0.282 1 2 cbr 1000 ------- 23 1.0 2.0 82 128
r 0.282032 1 2 cbr 1000 ------- 23 1.0 2.0 71 111
r 0.2824 4 1 cbr 500 ------- 56 4.0 5.0 36 112
+ 0.2824 1 2 cbr 500 ------- 56 4.0 5.0 36 112
- 0.282496 1 2 cbr 500 ------- 56 4.0 5.0 35 109
r 0.282864 1 2 tcp 1040 ------- 14 0.0 3.0 1 94
+ 0.282864 2 3 tcp 1040 ------- 14 0.0 3.0 1 94
- 0.282864 2 3 tcp 1040 ------- 14 0.0 3.0 1 94
- 0.282896 1 2 cbr 1000 ------- 23 1.0 2.0 81 126
+ 0.283 1 2 cbr 1000 ------- 23 1.0 2.0 83 129
r 0.283632 2 5 cbr 500 ------- 56 4.0 5.0 26 80
r 0.283664 1 2 cbr 1000 ------- 23 1.0 2.0 72 113
- 0.283696 1 2 cbr 1000 ------- 23 1.0 2.0 82 128
+ 0.284 4 1 cbr 500 ------- 56 4.0 5.0 42 130
- 0.284 4 1 cbr 500 ------- 56 4.0 5.0 42 130
+ 0.284 1 2 cbr 1000 ------- 23 1.0 2.0 84 131
r 0.284064 1 2 cbr 500 ------- 56 4.0 5.0 31 97
+ 0.284064 2 5 cbr 500 ------- 56 4.0 5.0 31 97
- 0.284064 2 5 cbr 500 ------- 56 4.0 5.0 31 97
r 0.2844 4 1 cbr 500 ------- 56 4.0 5.0 37 115
+ 0.2844 1 2 cbr 500 ------- 56 4.0 5.0 37 115
- 0.284496 1 2 cbr 500 ------- 56 4.0 5.0 36 112
r 0.284896 1 2 tcp 1040 ------- 14 0.0 3.0 2 95
+ 0.284896 2 3 tcp 1040 ------- 14 0.0 3.0 2 95
- 0.284896 2 3 tcp 1040 ------- 14 0.0 3.0 2 95
- 0.284896 1 2 cbr 1000 ------- 23 1.0 2.0 83 129
+ 0.285 1 2 cbr 1000 ------- 23 1.0 2.0 85 132
r 0.285632 2 5 cbr 500 ------- 56 4.0 5.0 27 83
r 0.285696 1 2 cbr 1000 ------- 23 1.0 2.0 73 114
- 0.285696 1 2 cbr 1000 ------- 23 1.0 2.0 84 131
+ 0.286 4 1 cbr 500 ------- 56 4.0 5.0 43 133
- 0.286 4 1 cbr 500 ------- 56 4.0 5.0 43 133
+ 0.286 1 2 cbr 1000 ------- 23 1.0 2.0 86 134
r 0.2864 4 1 cbr 500 ------- 56 4.0 5.0 38 118
+ 0.2864 1 2 cbr 500 ------- 56 4.0 5.0 38 118
r 0.286496 1 2 cbr 1000 ------- 23 1.0 2.0 74 116
- 0.286496 1 2 cbr 500 ------- 56 4.0 5.0 37 115
r 0.286896 1 2 cbr 500 ------- 56 4.0 5.0 32 100
+ 0.286896 2 5 cbr 500 ------- 56 4.0 5.0 32 100
- 0.286896 2 5 cbr 500 ------- 56 4.0 5.0 32 100
- 0.286896 1 2 cbr 1000 ------- 23 1.0 2.0 85 132
+ 0.287 1 2 cbr 1000 ------- 23 1.0 2.0 87 135
r 0.287632 2 5 cbr 500 ------- 56 4.0 5.0 28 86
r 0.287696 1 2 cbr 1000 ------- 23 1.0 2.0 75 117
- 0.287696 1 2 cbr 1000 ------- 23 1.0 2.0 86 134
+ 0.288 4 1 cbr 500 ------- 56 4.0 5.0 44 136
- 0.288 4 1 cbr 500 ------- 56 4.0 5.0 44 136
+ 0.288 1 2 cbr 1000 ------- 23 1.0 2.0 88 137
r 0.2884 4 1 cbr 500 ------- 56 4.0 5.0 39 121
+ 0.2884 1 2 cbr 500 ------- 56 4.0 5.0 39 121
r 0.288496 1 2 cbr 1000 ------- 23 1.0 2.0 76 119
- 0.288496 1 2 cbr 500 ------- 56 4.0 5.0 38 118
r 0.288896 1 2 cbr 500 ------- 56 4.0 5.0 33 103
+ 0.288896 2 5 cbr 500 ------- 56 4.0 5.0 33 103
- 0.288896 2 5 cbr 500 ------- 56 4.0 5.0 33 103
- 0.288896 1 2 cbr 1000 ------- 23 1.0 2.0 87 135
+ 0.289 1 2 cbr 1000 ------- 23 1.0 2.0 89 138
r 0.289632 2 5 cbr 500 ------- 56 4.0 5.0 29 89
r 0.289696 1 2 cbr 1000 ------- 23 1.0 2.0 77 120
- 0.289696 1 2 cbr 1000 ------- 23 1.0 2.0 88 137
+ 0.29 4 1 cbr 500 ------- 56 4.0 5.0 45 139
- 0.29 4 1 cbr 500 ------- 56 4.0 5.0 45 139
+ 0.29 1 2 cbr 1000 ------- 23 1.0 2.0 90 140
r 0.2904 4 1 cbr 500 ------- 56 4.0 5.0 40 124
+ 0.2904 1 2 cbr 500 ------- 56 4.0 5.0 40 124
r 0.290496 1 2 cbr 1000 ------- 23 1.0 2.0 78 122