<<<<<<< HEAD
+ 10.603202 0 1 exp 200 ------- 0 0.0 3.0 0 0
- 10.603202 0 1 exp 200 ------- 0 0.0 3.0 0 0
r 10.613362 0 1 exp 200 ------- 0 0.0 3.0 0 0
+ 10.613362 1 2 exp 200 ------- 0 0.0 3.0 0 0
- 10.613362 1 2 exp 200 ------- 0 0.0 3.0 0 0
+ 10.619202 0 1 exp 200 ------- 0 0.0 3.0 1 1
- 10.619202 0 1 exp 200 ------- 0 0.0 3.0 1 1
r 10.623522 1 2 exp 200 ------- 0 0.0 3.0 0 0
+ 10.623522 2 3 exp 200 ------- 0 0.0 3.0 0 0
- 10.623522 2 3 exp 200 ------- 0 0.0 3.0 0 0
r 10.629362 0 1 exp 200 ------- 0 0.0 3.0 1 1
+ 10.629362 1 2 exp 200 ------- 0 0.0 3.0 1 1
- 10.629362 1 2 exp 200 ------- 0 0.0 3.0 1 1
r 10.633682 2 3 exp 200 ------- 0 0.0 3.0 0 0
+ 10.635202 0 1 exp 200 ------- 0 0.0 3.0 2 2
- 10.635202 0 1 exp 200 ------- 0 0.0 3.0 2 2
r 10.639522 1 2 exp 200 ------- 0 0.0 3.0 1 1
+ 10.639522 2 3 exp 200 ------- 0 0.0 3.0 1 1
- 10.639522 2 3 exp 200 ------- 0 0.0 3.0 1 1
r 10.645362 0 1 exp 200 ------- 0 0.0 3.0 2 2
+ 10.645362 1 2 exp 200 ------- 0 0.0 3.0 2 2
- 10.645362 1 2 exp 200 ------- 0 0.0 3.0 2 2
r 10.649682 2 3 exp 200 ------- 0 0.0 3.0 1 1
+ 10.651202 0 1 exp 200 ------- 0 0.0 3.0 3 3
- 10.651202 0 1 exp 200 ------- 0 0.0 3.0 3 3
r 10.655522 1 2 exp 200 ------- 0 0.0 3.0 2 2
+ 10.655522 2 3 exp 200 ------- 0 0.0 3.0 2 2
- 10.655522 2 3 exp 200 ------- 0 0.0 3.0 2 2
r 10.661362 0 1 exp 200 ------- 0 0.0 3.0 3 3
+ 10.661362 1 2 exp 200 ------- 0 0.0 3.0 3 3
- 10.661362 1 2 exp 200 ------- 0 0.0 3.0 3 3
r 10.665682 2 3 exp 200 ------- 0 0.0 3.0 2 2
+ 10.667202 0 1 exp 200 ------- 0 0.0 3.0 4 4
- 10.667202 0 1 exp 200 ------- 0 0.0 3.0 4 4
r 10.671522 1 2 exp 200 ------- 0 0.0 3.0 3 3
+ 10.671522 2 3 exp 200 ------- 0 0.0 3.0 3 3
- 10.671522 2 3 exp 200 ------- 0 0.0 3.0 3 3
r 10.677362 0 1 exp 200 ------- 0 0.0 3.0 4 4
+ 10.677362 1 2 exp 200 ------- 0 0.0 3.0 4 4
- 10.677362 1 2 exp 200 ------- 0 0.0 3.0 4 4
r 10.681682 2 3 exp 200 ------- 0 0.0 3.0 3 3
+ 10.683202 0 1 exp 200 ------- 0 0.0 3.0 5 5
- 10.683202 0 1 exp 200 ------- 0 0.0 3.0 5 5
r 10.687522 1 2 exp 200 ------- 0 0.0 3.0 4 4
+ 10.687522 2 3 exp 200 ------- 0 0.0 3.0 4 4
- 10.687522 2 3 exp 200 ------- 0 0.0 3.0 4 4
r 10.693362 0 1 exp 200 ------- 0 0.0 3.0 5 5
+ 10.693362 1 2 exp 200 ------- 0 0.0 3.0 5 5
- 10.693362 1 2 exp 200 ------- 0 0.0 3.0 5 5
r 10.697682 2 3 exp 200 ------- 0 0.0 3.0 4 4
+ 10.699202 0 1 exp 200 ------- 0 0.0 3.0 6 6
- 10.699202 0 1 exp 200 ------- 0 0.0 3.0 6 6
r 10.703522 1 2 exp 200 ------- 0 0.0 3.0 5 5
+ 10.703522 2 3 exp 200 ------- 0 0.0 3.0 5 5
- 10.703522 2 3 exp 200 ------- 0 0.0 3.0 5 5
r 10.709362 0 1 exp 200 ------- 0 0.0 3.0 6 6
+ 10.709362 1 2 exp 200 ------- 0 0.0 3.0 6 6
- 10.709362 1 2 exp 200 ------- 0 0.0 3.0 6 6
r 10.713682 2 3 exp 200 ------- 0 0.0 3.0 5 5
+ 10.715202 0 1 exp 200 ------- 0 0.0 3.0 7 7
- 10.715202 0 1 exp 200 ------- 0 0.0 3.0 7 7
r 10.719522 1 2 exp 200 ------- 0 0.0 3.0 6 6
+ 10.719522 2 3 exp 200 ------- 0 0.0 3.0 6 6
- 10.719522 2 3 exp 200 ------- 0 0.0 3.0 6 6
r 10.725362 0 1 exp 200 ------- 0 0.0 3.0 7 7
+ 10.725362 1 2 exp 200 ------- 0 0.0 3.0 7 7
- 10.725362 1 2 exp 200 ------- 0 0.0 3.0 7 7
r 10.729682 2 3 exp 200 ------- 0 0.0 3.0 6 6
+ 10.731202 0 1 exp 200 ------- 0 0.0 3.0 8 8
- 10.731202 0 1 exp 200 ------- 0 0.0 3.0 8 8
r 10.735522 1 2 exp 200 ------- 0 0.0 3.0 7 7
+ 10.735522 2 3 exp 200 ------- 0 0.0 3.0 7 7
- 10.735522 2 3 exp 200 ------- 0 0.0 3.0 7 7
r 10.741362 0 1 exp 200 ------- 0 0.0 3.0 8 8
+ 10.741362 1 2 exp 200 ------- 0 0.0 3.0 8 8
- 10.741362 1 2 exp 200 ------- 0 0.0 3.0 8 8
r 10.745682 2 3 exp 200 ------- 0 0.0 3.0 7 7
+ 10.747202 0 1 exp 200 ------- 0 0.0 3.0 9 9
- 10.747202 0 1 exp 200 ------- 0 0.0 3.0 9 9
r 10.751522 1 2 exp 200 ------- 0 0.0 3.0 8 8
+ 10.751522 2 3 exp 200 ------- 0 0.0 3.0 8 8
- 10.751522 2 3 exp 200 ------- 0 0.0 3.0 8 8
r 10.757362 0 1 exp 200 ------- 0 0.0 3.0 9 9
+ 10.757362 1 2 exp 200 ------- 0 0.0 3.0 9 9
- 10.757362 1 2 exp 200 ------- 0 0.0 3.0 9 9
r 10.761682 2 3 exp 200 ------- 0 0.0 3.0 8 8
+ 10.763202 0 1 exp 200 ------- 0 0.0 3.0 10 10
- 10.763202 0 1 exp 200 ------- 0 0.0 3.0 10 10
r 10.767522 1 2 exp 200 ------- 0 0.0 3.0 9 9
+ 10.767522 2 3 exp 200 ------- 0 0.0 3.0 9 9
- 10.767522 2 3 exp 200 ------- 0 0.0 3.0 9 9
r 10.773362 0 1 exp 200 ------- 0 0.0 3.0 10 10
+ 10.773362 1 2 exp 200 ------- 0 0.0 3.0 10 10
- 10.773362 1 2 exp 200 ------- 0 0.0 3.0 10 10
r 10.777682 2 3 exp 200 ------- 0 0.0 3.0 9 9
+ 10.779202 0 1 exp 200 ------- 0 0.0 3.0 11 11
- 10.779202 0 1 exp 200 ------- 0 0.0 3.0 11 11
r 10.783522 1 2 exp 200 ------- 0 0.0 3.0 10 10
+ 10.783522 2 3 exp 200 ------- 0 0.0 3.0 10 10
- 10.783522 2 3 exp 200 ------- 0 0.0 3.0 10 10
r 10.789362 0 1 exp 200 ------- 0 0.0 3.0 11 11
+ 10.789362 1 2 exp 200 ------- 0 0.0 3.0 11 11
- 10.789362 1 2 exp 200 ------- 0 0.0 3.0 11 11
r 10.793682 2 3 exp 200 ------- 0 0.0 3.0 10 10
+ 10.795202 0 1 exp 200 ------- 0 0.0 3.0 12 12
- 10.795202 0 1 exp 200 ------- 0 0.0 3.0 12 12
r 10.799522 1 2 exp 200 ------- 0 0.0 3.0 11 11
+ 10.799522 2 3 exp 200 ------- 0 0.0 3.0 11 11
- 10.799522 2 3 exp 200 ------- 0 0.0 3.0 11 11
r 10.805362 0 1 exp 200 ------- 0 0.0 3.0 12 12
+ 10.805362 1 2 exp 200 ------- 0 0.0 3.0 12 12
- 10.805362 1 2 exp 200 ------- 0 0.0 3.0 12 12
r 10.809682 2 3 exp 200 ------- 0 0.0 3.0 11 11
+ 10.811202 0 1 exp 200 ------- 0 0.0 3.0 13 13
- 10.811202 0 1 exp 200 ------- 0 0.0 3.0 13 13
r 10.815522 1 2 exp 200 ------- 0 0.0 3.0 12 12
+ 10.815522 2 3 exp 200 ------- 0 0.0 3.0 12 12
- 10.815522 2 3 exp 200 ------- 0 0.0 3.0 12 12
r 10.821362 0 1 exp 200 ------- 0 0.0 3.0 13 13
+ 10.821362 1 2 exp 200 ------- 0 0.0 3.0 13 13
- 10.821362 1 2 exp 200 ------- 0 0.0 3.0 13 13
r 10.825682 2 3 exp 200 ------- 0 0.0 3.0 12 12
+ 10.827202 0 1 exp 200 ------- 0 0.0 3.0 14 14
- 10.827202 0 1 exp 200 ------- 0 0.0 3.0 14 14
r 10.831522 1 2 exp 200 ------- 0 0.0 3.0 13 13
+ 10.831522 2 3 exp 200 ------- 0 0.0 3.0 13 13
- 10.831522 2 3 exp 200 ------- 0 0.0 3.0 13 13
r 10.837362 0 1 exp 200 ------- 0 0.0 3.0 14 14
+ 10.837362 1 2 exp 200 ------- 0 0.0 3.0 14 14
- 10.837362 1 2 exp 200 ------- 0 0.0 3.0 14 14
r 10.841682 2 3 exp 200 ------- 0 0.0 3.0 13 13
+ 10.843202 0 1 exp 200 ------- 0 0.0 3.0 15 15
- 10.843202 0 1 exp 200 ------- 0 0.0 3.0 15 15
r 10.847522 1 2 exp 200 ------- 0 0.0 3.0 14 14
+ 10.847522 2 3 exp 200 ------- 0 0.0 3.0 14 14
- 10.847522 2 3 exp 200 ------- 0 0.0 3.0 14 14
r 10.853362 0 1 exp 200 ------- 0 0.0 3.0 15 15
+ 10.853362 1 2 exp 200 ------- 0 0.0 3.0 15 15
- 10.853362 1 2 exp 200 ------- 0 0.0 3.0 15 15
r 10.857682 2 3 exp 200 ------- 0 0.0 3.0 14 14
+ 10.859202 0 1 exp 200 ------- 0 0.0 3.0 16 16
- 10.859202 0 1 exp 200 ------- 0 0.0 3.0 16 16
r 10.863522 1 2 exp 200 ------- 0 0.0 3.0 15 15
+ 10.863522 2 3 exp 200 ------- 0 0.0 3.0 15 15
- 10.863522 2 3 exp 200 ------- 0 0.0 3.0 15 15
r 10.869362 0 1 exp 200 ------- 0 0.0 3.0 16 16
+ 10.869362 1 2 exp 200 ------- 0 0.0 3.0 16 16
- 10.869362 1 2 exp 200 ------- 0 0.0 3.0 16 16
r 10.873682 2 3 exp 200 ------- 0 0.0 3.0 15 15
+ 10.875202 0 1 exp 200 ------- 0 0.0 3.0 17 17
- 10.875202 0 1 exp 200 ------- 0 0.0 3.0 17 17
r 10.879522 1 2 exp 200 ------- 0 0.0 3.0 16 16
+ 10.879522 2 3 exp 200 ------- 0 0.0 3.0 16 16
- 10.879522 2 3 exp 200 ------- 0 0.0 3.0 16 16
r 10.885362 0 1 exp 200 ------- 0 0.0 3.0 17 17
+ 10.885362 1 2 exp 200 ------- 0 0.0 3.0 17 17
- 10.885362 1 2 exp 200 ------- 0 0.0 3.0 17 17
r 10.889682 2 3 exp 200 ------- 0 0.0 3.0 16 16
+ 10.891202 0 1 exp 200 ------- 0 0.0 3.0 18 18
- 10.891202 0 1 exp 200 ------- 0 0.0 3.0 18 18
r 10.895522 1 2 exp 200 ------- 0 0.0 3.0 17 17
+ 10.895522 2 3 exp 200 ------- 0 0.0 3.0 17 17
- 10.895522 2 3 exp 200 ------- 0 0.0 3.0 17 17
r 10.901362 0 1 exp 200 ------- 0 0.0 3.0 18 18
+ 10.901362 1 2 exp 200 ------- 0 0.0 3.0 18 18
- 10.901362 1 2 exp 200 ------- 0 0.0 3.0 18 18
r 10.905682 2 3 exp 200 ------- 0 0.0 3.0 17 17
+ 10.907202 0 1 exp 200 ------- 0 0.0 3.0 19 19
- 10.907202 0 1 exp 200 ------- 0 0.0 3.0 19 19
r 10.911522 1 2 exp 200 ------- 0 0.0 3.0 18 18
+ 10.911522 2 3 exp 200 ------- 0 0.0 3.0 18 18
- 10.911522 2 3 exp 200 ------- 0 0.0 3.0 18 18
r 10.917362 0 1 exp 200 ------- 0 0.0 3.0 19 19
+ 10.917362 1 2 exp 200 ------- 0 0.0 3.0 19 19
- 10.917362 1 2 exp 200 ------- 0 0.0 3.0 19 19
r 10.921682 2 3 exp 200 ------- 0 0.0 3.0 18 18
+ 10.923202 0 1 exp 200 ------- 0 0.0 3.0 20 20
- 10.923202 0 1 exp 200 ------- 0 0.0 3.0 20 20
r 10.927522 1 2 exp 200 ------- 0 0.0 3.0 19 19
+ 10.927522 2 3 exp 200 ------- 0 0.0 3.0 19 19
- 10.927522 2 3 exp 200 ------- 0 0.0 3.0 19 19
r 10.933362 0 1 exp 200 ------- 0 0.0 3.0 20 20
+ 10.933362 1 2 exp 200 ------- 0 0.0 3.0 20 20
- 10.933362 1 2 exp 200 ------- 0 0.0 3.0 20 20
r 10.937682 2 3 exp 200 ------- 0 0.0 3.0 19 19
+ 10.939202 0 1 exp 200 ------- 0 0.0 3.0 21 21
- 10.939202 0 1 exp 200 ------- 0 0.0 3.0 21 21
r 10.943522 1 2 exp 200 ------- 0 0.0 3.0 20 20
+ 10.943522 2 3 exp 200 ------- 0 0.0 3.0 20 20
- 10.943522 2 3 exp 200 ------- 0 0.0 3.0 20 20
r 10.949362 0 1 exp 200 ------- 0 0.0 3.0 21 21
+ 10.949362 1 2 exp 200 ------- 0 0.0 3.0 21 21
- 10.949362 1 2 exp 200 ------- 0 0.0 3.0 21 21
r 10.953682 2 3 exp 200 ------- 0 0.0 3.0 20 20
+ 10.955202 0 1 exp 200 ------- 0 0.0 3.0 22 22
- 10.955202 0 1 exp 200 ------- 0 0.0 3.0 22 22
r 10.959522 1 2 exp 200 ------- 0 0.0 3.0 21 21
+ 10.959522 2 3 exp 200 ------- 0 0.0 3.0 21 21
- 10.959522 2 3 exp 200 ------- 0 0.0 3.0 21 21
r 10.965362 0 1 exp 200 ------- 0 0.0 3.0 22 22
+ 10.965362 1 2 exp 200 ------- 0 0.0 3.0 22 22
- 10.965362 1 2 exp 200 ------- 0 0.0 3.0 22 22
r 10.969682 2 3 exp 200 ------- 0 0.0 3.0 21 21
+ 10.971202 0 1 exp 200 ------- 0 0.0 3.0 23 23
- 10.971202 0 1 exp 200 ------- 0 0.0 3.0 23 23
r 10.975522 1 2 exp 200 ------- 0 0.0 3.0 22 22
+ 10.975522 2 3 exp 200 ------- 0 0.0 3.0 22 22
- 10.975522 2 3 exp 200 ------- 0 0.0 3.0 22 22
r 10.981362 0 1 exp 200 ------- 0 0.0 3.0 23 23
+ 10.981362 1 2 exp 200 ------- 0 0.0 3.0 23 23
- 10.981362 1 2 exp 200 ------- 0 0.0 3.0 23 23
r 10.985682 2 3 exp 200 ------- 0 0.0 3.0 22 22
+ 10.987202 0 1 exp 200 ------- 0 0.0 3.0 24 24
- 10.987202 0 1 exp 200 ------- 0 0.0 3.0 24 24
r 10.991522 1 2 exp 200 ------- 0 0.0 3.0 23 23
+ 10.991522 2 3 exp 200 ------- 0 0.0 3.0 23 23
- 10.991522 2 3 exp 200 ------- 0 0.0 3.0 23 23
r 10.997362 0 1 exp 200 ------- 0 0.0 3.0 24 24
+ 10.997362 1 2 exp 200 ------- 0 0.0 3.0 24 24
- 10.997362 1 2 exp 200 ------- 0 0.0 3.0 24 24
r 11.001682 2 3 exp 200 ------- 0 0.0 3.0 23 23
+ 11.003202 0 1 exp 200 ------- 0 0.0 3.0 25 25
- 11.003202 0 1 exp 200 ------- 0 0.0 3.0 25 25
r 11.007522 1 2 exp 200 ------- 0 0.0 3.0 24 24
+ 11.007522 2 3 exp 200 ------- 0 0.0 3.0 24 24
- 11.007522 2 3 exp 200 ------- 0 0.0 3.0 24 24
r 11.013362 0 1 exp 200 ------- 0 0.0 3.0 25 25
+ 11.013362 1 2 exp 200 ------- 0 0.0 3.0 25 25
- 11.013362 1 2 exp 200 ------- 0 0.0 3.0 25 25
r 11.017682 2 3 exp 200 ------- 0 0.0 3.0 24 24
+ 11.019202 0 1 exp 200 ------- 0 0.0 3.0 26 26
- 11.019202 0 1 exp 200 ------- 0 0.0 3.0 26 26
r 11.023522 1 2 exp 200 ------- 0 0.0 3.0 25 25
+ 11.023522 2 3 exp 200 ------- 0 0.0 3.0 25 25
- 11.023522 2 3 exp 200 ------- 0 0.0 3.0 25 25
r 11.029362 0 1 exp 200 ------- 0 0.0 3.0 26 26
+ 11.029362 1 2 exp 200 ------- 0 0.0 3.0 26 26
- 11.029362 1 2 exp 200 ------- 0 0.0 3.0 26 26
r 11.033682 2 3 exp 200 ------- 0 0.0 3.0 25 25
+ 11.035202 0 1 exp 200 ------- 0 0.0 3.0 27 27
- 11.035202 0 1 exp 200 ------- 0 0.0 3.0 27 27
r 11.039522 1 2 exp 200 ------- 0 0.0 3.0 26 26
+ 11.039522 2 3 exp 200 ------- 0 0.0 3.0 26 26
- 11.039522 2 3 exp 200 ------- 0 0.0 3.0 26 26
r 11.045362 0 1 exp 200 ------- 0 0.0 3.0 27 27
+ 11.045362 1 2 exp 200 ------- 0 0.0 3.0 27 27
- 11.045362 1 2 exp 200 ------- 0 0.0 3.0 27 27
r 11.049682 2 3 exp 200 ------- 0 0.0 3.0 26 26
+ 11.051202 0 1 exp 200 ------- 0 0.0 3.0 28 28
- 11.051202 0 1 exp 200 ------- 0 0.0 3.0 28 28
r 11.055522 1 2 exp 200 ------- 0 0.0 3.0 27 27
+ 11.055522 2 3 exp 200 ------- 0 0.0 3.0 27 27
- 11.055522 2 3 exp 200 ------- 0 0.0 3.0 27 27
r 11.061362 0 1 exp 200 ------- 0 0.0 3.0 28 28
+ 11.061362 1 2 exp 200 ------- 0 0.0 3.0 28 28
- 11.061362 1 2 exp 200 ------- 0 0.0 3.0 28 28
r 11.065682 2 3 exp 200 ------- 0 0.0 3.0 27 27
+ 11.067202 0 1 exp 200 ------- 0 0.0 3.0 29 29
- 11.067202 0 1 exp 200 ------- 0 0.0 3.0 29 29
r 11.071522 1 2 exp 200 ------- 0 0.0 3.0 28 28
+ 11.071522 2 3 exp 200 ------- 0 0.0 3.0 28 28
- 11.071522 2 3 exp 200 ------- 0 0.0 3.0 28 28
r 11.077362 0 1 exp 200 ------- 0 0.0 3.0 29 29
+ 11.077362 1 2 exp 200 ------- 0 0.0 3.0 29 29
- 11.077362 1 2 exp 200 ------- 0 0.0 3.0 29 29
r 11.081682 2 3 exp 200 ------- 0 0.0 3.0 28 28
+ 11.083202 0 1 exp 200 ------- 0 0.0 3.0 30 30
- 11.083202 0 1 exp 200 ------- 0 0.0 3.0 30 30
r 11.087522 1 2 exp 200 ------- 0 0.0 3.0 29 29
+ 11.087522 2 3 exp 200 ------- 0 0.0 3.0 29 29
- 11.087522 2 3 exp 200 ------- 0 0.0 3.0 29 29
r 11.093362 0 1 exp 200 ------- 0 0.0 3.0 30 30
+ 11.093362 1 2 exp 200 ------- 0 0.0 3.0 30 30
- 11.093362 1 2 exp 200 ------- 0 0.0 3.0 30 30
r 11.097682 2 3 exp 200 ------- 0 0.0 3.0 29 29
+ 11.099202 0 1 exp 200 ------- 0 0.0 3.0 31 31
- 11.099202 0 1 exp 200 ------- 0 0.0 3.0 31 31
r 11.103522 1 2 exp 200 ------- 0 0.0 3.0 30 30
+ 11.103522 2 3 exp 200 ------- 0 0.0 3.0 30 30
- 11.103522 2 3 exp 200 ------- 0 0.0 3.0 30 30
r 11.109362 0 1 exp 200 ------- 0 0.0 3.0 31 31
+ 11.109362 1 2 exp 200 ------- 0 0.0 3.0 31 31
- 11.109362 1 2 exp 200 ------- 0 0.0 3.0 31 31
r 11.113682 2 3 exp 200 ------- 0 0.0 3.0 30 30
+ 11.115202 0 1 exp 200 ------- 0 0.0 3.0 32 32
- 11.115202 0 1 exp 200 ------- 0 0.0 3.0 32 32
r 11.119522 1 2 exp 200 ------- 0 0.0 3.0 31 31
+ 11.119522 2 3 exp 200 ------- 0 0.0 3.0 31 31
- 11.119522 2 3 exp 200 ------- 0 0.0 3.0 31 31
r 11.125362 0 1 exp 200 ------- 0 0.0 3.0 32 32
+ 11.125362 1 2 exp 200 ------- 0 0.0 3.0 32 32
- 11.125362 1 2 exp 200 ------- 0 0.0 3.0 32 32
r 11.129682 2 3 exp 200 ------- 0 0.0 3.0 31 31
+ 11.131202 0 1 exp 200 ------- 0 0.0 3.0 33 33
- 11.131202 0 1 exp 200 ------- 0 0.0 3.0 33 33
r 11.135522 1 2 exp 200 ------- 0 0.0 3.0 32 32
+ 11.135522 2 3 exp 200 ------- 0 0.0 3.0 32 32
- 11.135522 2 3 exp 200 ------- 0 0.0 3.0 32 32
r 11.141362 0 1 exp 200 ------- 0 0.0 3.0 33 33
+ 11.141362 1 2 exp 200 ------- 0 0.0 3.0 33 33
- 11.141362 1 2 exp 200 ------- 0 0.0 3.0 33 33
r 11.145682 2 3 exp 200 ------- 0 0.0 3.0 32 32
+ 11.147202 0 1 exp 200 ------- 0 0.0 3.0 34 34
- 11.147202 0 1 exp 200 ------- 0 0.0 3.0 34 34
r 11.151522 1 2 exp 200 ------- 0 0.0 3.0 33 33
+ 11.151522 2 3 exp 200 ------- 0 0.0 3.0 33 33
- 11.151522 2 3 exp 200 ------- 0 0.0 3.0 33 33
r 11.157362 0 1 exp 200 ------- 0 0.0 3.0 34 34
+ 11.157362 1 2 exp 200 ------- 0 0.0 3.0 34 34
- 11.157362 1 2 exp 200 ------- 0 0.0 3.0 34 34
r 11.161682 2 3 exp 200 ------- 0 0.0 3.0 33 33
+ 11.163202 0 1 exp 200 ------- 0 0.0 3.0 35 35
- 11.163202 0 1 exp 200 ------- 0 0.0 3.0 35 35
r 11.167522 1 2 exp 200 ------- 0 0.0 3.0 34 34
+ 11.167522 2 3 exp 200 ------- 0 0.0 3.0 34 34
- 11.167522 2 3 exp 200 ------- 0 0.0 3.0 34 34
r 11.173362 0 1 exp 200 ------- 0 0.0 3.0 35 35
+ 11.173362 1 2 exp 200 ------- 0 0.0 3.0 35 35
- 11.173362 1 2 exp 200 ------- 0 0.0 3.0 35 35
r 11.177682 2 3 exp 200 ------- 0 0.0 3.0 34 34
+ 11.179202 0 1 exp 200 ------- 0 0.0 3.0 36 36
- 11.179202 0 1 exp 200 ------- 0 0.0 3.0 36 36
r 11.183522 1 2 exp 200 ------- 0 0.0 3.0 35 35
+ 11.183522 2 3 exp 200 ------- 0 0.0 3.0 35 35
- 11.183522 2 3 exp 200 ------- 0 0.0 3.0 35 35
r 11.189362 0 1 exp 200 ------- 0 0.0 3.0 36 36
+ 11.189362 1 2 exp 200 ------- 0 0.0 3.0 36 36
- 11.189362 1 2 exp 200 ------- 0 0.0 3.0 36 36
r 11.193682 2 3 exp 200 ------- 0 0.0 3.0 35 35
+ 11.195202 0 1 exp 200 ------- 0 0.0 3.0 37 37
- 11.195202 0 1 exp 200 ------- 0 0.0 3.0 37 37
r 11.199522 1 2 exp 200 ------- 0 0.0 3.0 36 36
+ 11.199522 2 3 exp 200 ------- 0 0.0 3.0 36 36
- 11.199522 2 3 exp 200 ------- 0 0.0 3.0 36 36
r 11.205362 0 1 exp 200 ------- 0 0.0 3.0 37 37
+ 11.205362 1 2 exp 200 ------- 0 0.0 3.0 37 37
- 11.205362 1 2 exp 200 ------- 0 0.0 3.0 37 37
r 11.209682 2 3 exp 200 ------- 0 0.0 3.0 36 36
+ 11.211202 0 1 exp 200 ------- 0 0.0 3.0 38 38
- 11.211202 0 1 exp 200 ------- 0 0.0 3.0 38 38
r 11.215522 1 2 exp 200 ------- 0 0.0 3.0 37 37
+ 11.215522 2 3 exp 200 ------- 0 0.0 3.0 37 37
- 11.215522 2 3 exp 200 ------- 0 0.0 3.0 37 37
r 11.221362 0 1 exp 200 ------- 0 0.0 3.0 38 38
+ 11.221362 1 2 exp 200 ------- 0 0.0 3.0 38 38
- 11.221362 1 2 exp 200 ------- 0 0.0 3.0 38 38
r 11.225682 2 3 exp 200 ------- 0 0.0 3.0 37 37
+ 11.227202 0 1 exp 200 ------- 0 0.0 3.0 39 39
- 11.227202 0 1 exp 200 ------- 0 0.0 3.0 39 39
r 11.231522 1 2 exp 200 ------- 0 0.0 3.0 38 38
+ 11.231522 2 3 exp 200 ------- 0 0.0 3.0 38 38
- 11.231522 2 3 exp 200 ------- 0 0.0 3.0 38 38
r 11.237362 0 1 exp 200 ------- 0 0.0 3.0 39 39
+ 11.237362 1 2 exp 200 ------- 0 0.0 3.0 39 39
- 11.237362 1 2 exp 200 ------- 0 0.0 3.0 39 39
r 11.241682 2 3 exp 200 ------- 0 0.0 3.0 38 38
+ 11.243202 0 1 exp 200 ------- 0 0.0 3.0 40 40
- 11.243202 0 1 exp 200 ------- 0 0.0 3.0 40 40
r 11.247522 1 2 exp 200 ------- 0 0.0 3.0 39 39
+ 11.247522 2 3 exp 200 ------- 0 0.0 3.0 39 39
- 11.247522 2 3 exp 200 ------- 0 0.0 3.0 39 39
r 11.253362 0 1 exp 200 ------- 0 0.0 3.0 40 40
+ 11.253362 1 2 exp 200 ------- 0 0.0 3.0 40 40
- 11.253362 1 2 exp 200 ------- 0 0.0 3.0 40 40
r 11.257682 2 3 exp 200 ------- 0 0.0 3.0 39 39
+ 11.259202 0 1 exp 200 ------- 0 0.0 3.0 41 41
- 11.259202 0 1 exp 200 ------- 0 0.0 3.0 41 41
r 11.263522 1 2 exp 200 ------- 0 0.0 3.0 40 40
+ 11.263522 2 3 exp 200 ------- 0 0.0 3.0 40 40
- 11.263522 2 3 exp 200 ------- 0 0.0 3.0 40 40
r 11.269362 0 1 exp 200 ------- 0 0.0 3.0 41 41
+ 11.269362 1 2 exp 200 ------- 0 0.0 3.0 41 41
- 11.269362 1 2 exp 200 ------- 0 0.0 3.0 41 41
r 11.273682 2 3 exp 200 ------- 0 0.0 3.0 40 40
+ 11.275202 0 1 exp 200 ------- 0 0.0 3.0 42 42
- 11.275202 0 1 exp 200 ------- 0 0.0 3.0 42 42
r 11.279522 1 2 exp 200 ------- 0 0.0 3.0 41 41
+ 11.279522 2 3 exp 200 ------- 0 0.0 3.0 41 41
- 11.279522 2 3 exp 200 ------- 0 0.0 3.0 41 41
r 11.285362 0 1 exp 200 ------- 0 0.0 3.0 42 42
+ 11.285362 1 2 exp 200 ------- 0 0.0 3.0 42 42
- 11.285362 1 2 exp 200 ------- 0 0.0 3.0 42 42
r 11.289682 2 3 exp 200 ------- 0 0.0 3.0 41 41
+ 11.291202 0 1 exp 200 ------- 0 0.0 3.0 43 43
- 11.291202 0 1 exp 200 ------- 0 0.0 3.0 43 43
r 11.295522 1 2 exp 200 ------- 0 0.0 3.0 42 42
+ 11.295522 2 3 exp 200 ------- 0 0.0 3.0 42 42
- 11.295522 2 3 exp 200 ------- 0 0.0 3.0 42 42
r 11.301362 0 1 exp 200 ------- 0 0.0 3.0 43 43
+ 11.301362 1 2 exp 200 ------- 0 0.0 3.0 43 43
- 11.301362 1 2 exp 200 ------- 0 0.0 3.0 43 43
r 11.305682 2 3 exp 200 ------- 0 0.0 3.0 42 42
+ 11.307202 0 1 exp 200 ------- 0 0.0 3.0 44 44
- 11.307202 0 1 exp 200 ------- 0 0.0 3.0 44 44
r 11.311522 1 2 exp 200 ------- 0 0.0 3.0 43 43
+ 11.311522 2 3 exp 200 ------- 0 0.0 3.0 43 43
- 11.311522 2 3 exp 200 ------- 0 0.0 3.0 43 43
r 11.317362 0 1 exp 200 ------- 0 0.0 3.0 44 44
+ 11.317362 1 2 exp 200 ------- 0 0.0 3.0 44 44
- 11.317362 1 2 exp 200 ------- 0 0.0 3.0 44 44
r 11.321682 2 3 exp 200 ------- 0 0.0 3.0 43 43
+ 11.323202 0 1 exp 200 ------- 0 0.0 3.0 45 45
- 11.323202 0 1 exp 200 ------- 0 0.0 3.0 45 45
r 11.327522 1 2 exp 200 ------- 0 0.0 3.0 44 44
+ 11.327522 2 3 exp 200 ------- 0 0.0 3.0 44 44
- 11.327522 2 3 exp 200 ------- 0 0.0 3.0 44 44
r 11.333362 0 1 exp 200 ------- 0 0.0 3.0 45 45
+ 11.333362 1 2 exp 200 ------- 0 0.0 3.0 45 45
- 11.333362 1 2 exp 200 ------- 0 0.0 3.0 45 45
r 11.337682 2 3 exp 200 ------- 0 0.0 3.0 44 44
+ 11.339202 0 1 exp 200 ------- 0 0.0 3.0 46 46
- 11.339202 0 1 exp 200 ------- 0 0.0 3.0 46 46
r 11.343522 1 2 exp 200 ------- 0 0.0 3.0 45 45
+ 11.343522 2 3 exp 200 ------- 0 0.0 3.0 45 45
- 11.343522 2 3 exp 200 ------- 0 0.0 3.0 45 45
r 11.349362 0 1 exp 200 ------- 0 0.0 3.0 46 46
+ 11.349362 1 2 exp 200 ------- 0 0.0 3.0 46 46
- 11.349362 1 2 exp 200 ------- 0 0.0 3.0 46 46
r 11.353682 2 3 exp 200 ------- 0 0.0 3.0 45 45
+ 11.355202 0 1 exp 200 ------- 0 0.0 3.0 47 47
- 11.355202 0 1 exp 200 ------- 0 0.0 3.0 47 47
r 11.359522 1 2 exp 200 ------- 0 0.0 3.0 46 46
+ 11.359522 2 3 exp 200 ------- 0 0.0 3.0 46 46
- 11.359522 2 3 exp 200 ------- 0 0.0 3.0 46 46
r 11.365362 0 1 exp 200 ------- 0 0.0 3.0 47 47
+ 11.365362 1 2 exp 200 ------- 0 0.0 3.0 47 47
- 11.365362 1 2 exp 200 ------- 0 0.0 3.0 47 47
r 11.369682 2 3 exp 200 ------- 0 0.0 3.0 46 46
+ 11.371202 0 1 exp 200 ------- 0 0.0 3.0 48 48
- 11.371202 0 1 exp 200 ------- 0 0.0 3.0 48 48
r 11.375522 1 2 exp 200 ------- 0 0.0 3.0 47 47
+ 11.375522 2 3 exp 200 ------- 0 0.0 3.0 47 47
- 11.375522 2 3 exp 200 ------- 0 0.0 3.0 47 47
r 11.381362 0 1 exp 200 ------- 0 0.0 3.0 48 48
+ 11.381362 1 2 exp 200 ------- 0 0.0 3.0 48 48
- 11.381362 1 2 exp 200 ------- 0 0.0 3.0 48 48
r 11.385682 2 3 exp 200 ------- 0 0.0 3.0 47 47
+ 11.387202 0 1 exp 200 ------- 0 0.0 3.0 49 49
- 11.387202 0 1 exp 200 ------- 0 0.0 3.0 49 49
r 11.391522 1 2 exp 200 ------- 0 0.0 3.0 48 48
+ 11.391522 2 3 exp 200 ------- 0 0.0 3.0 48 48
- 11.391522 2 3 exp 200 ------- 0 0.0 3.0 48 48
r 11.397362 0 1 exp 200 ------- 0 0.0 3.0 49 49
+ 11.397362 1 2 exp 200 ------- 0 0.0 3.0 49 49
- 11.397362 1 2 exp 200 ------- 0 0.0 3.0 49 49
r 11.401682 2 3 exp 200 ------- 0 0.0 3.0 48 48
+ 11.403202 0 1 exp 200 ------- 0 0.0 3.0 50 50
- 11.403202 0 1 exp 200 ------- 0 0.0 3.0 50 50
r 11.407522 1 2 exp 200 ------- 0 0.0 3.0 49 49
+ 11.407522 2 3 exp 200 ------- 0 0.0 3.0 49 49
- 11.407522 2 3 exp 200 ------- 0 0.0 3.0 49 49
r 11.413362 0 1 exp 200 ------- 0 0.0 3.0 50 50
+ 11.413362 1 2 exp 200 ------- 0 0.0 3.0 50 50
- 11.413362 1 2 exp 200 ------- 0 0.0 3.0 50 50
r 11.417682 2 3 exp 200 ------- 0 0.0 3.0 49 49
+ 11.419202 0 1 exp 200 ------- 0 0.0 3.0 51 51
- 11.419202 0 1 exp 200 ------- 0 0.0 3.0 51 51
r 11.423522 1 2 exp 200 ------- 0 0.0 3.0 50 50
+ 11.423522 2 3 exp 200 ------- 0 0.0 3.0 50 50
- 11.423522 2 3 exp 200 ------- 0 0.0 3.0 50 50
r 11.429362 0 1 exp 200 ------- 0 0.0 3.0 51 51
+ 11.429362 1 2 exp 200 ------- 0 0.0 3.0 51 51
- 11.429362 1 2 exp 200 ------- 0 0.0 3.0 51 51
r 11.433682 2 3 exp 200 ------- 0 0.0 3.0 50 50
+ 11.435202 0 1 exp 200 ------- 0 0.0 3.0 52 52
- 11.435202 0 1 exp 200 ------- 0 0.0 3.0 52 52
r 11.439522 1 2 exp 200 ------- 0 0.0 3.0 51 51
+ 11.439522 2 3 exp 200 ------- 0 0.0 3.0 51 51
- 11.439522 2 3 exp 200 ------- 0 0.0 3.0 51 51
r 11.445362 0 1 exp 200 ------- 0 0.0 3.0 52 52
+ 11.445362 1 2 exp 200 ------- 0 0.0 3.0 52 52
- 11.445362 1 2 exp 200 ------- 0 0.0 3.0 52 52
r 11.449682 2 3 exp 200 ------- 0 0.0 3.0 51 51
+ 11.451202 0 1 exp 200 ------- 0 0.0 3.0 53 53
- 11.451202 0 1 exp 200 ------- 0 0.0 3.0 53 53
r 11.455522 1 2 exp 200 ------- 0 0.0 3.0 52 52
+ 11.455522 2 3 exp 200 ------- 0 0.0 3.0 52 52
- 11.455522 2 3 exp 200 ------- 0 0.0 3.0 52 52
r 11.461362 0 1 exp 200 ------- 0 0.0 3.0 53 53
+ 11.461362 1 2 exp 200 ------- 0 0.0 3.0 53 53
- 11.461362 1 2 exp 200 ------- 0 0.0 3.0 53 53
r 11.465682 2 3 exp 200 ------- 0 0.0 3.0 52 52
+ 11.467202 0 1 exp 200 ------- 0 0.0 3.0 54 54
- 11.467202 0 1 exp 200 ------- 0 0.0 3.0 54 54
r 11.471522 1 2 exp 200 ------- 0 0.0 3.0 53 53
+ 11.471522 2 3 exp 200 ------- 0 0.0 3.0 53 53
- 11.471522 2 3 exp 200 ------- 0 0.0 3.0 53 53
r 11.477362 0 1 exp 200 ------- 0 0.0 3.0 54 54
+ 11.477362 1 2 exp 200 ------- 0 0.0 3.0 54 54
- 11.477362 1 2 exp 200 ------- 0 0.0 3.0 54 54
r 11.481682 2 3 exp 200 ------- 0 0.0 3.0 53 53
+ 11.483202 0 1 exp 200 ------- 0 0.0 3.0 55 55
- 11.483202 0 1 exp 200 ------- 0 0.0 3.0 55 55
r 11.487522 1 2 exp 200 ------- 0 0.0 3.0 54 54
+ 11.487522 2 3 exp 200 ------- 0 0.0 3.0 54 54
- 11.487522 2 3 exp 200 ------- 0 0.0 3.0 54 54
r 11.493362 0 1 exp 200 ------- 0 0.0 3.0 55 55
+ 11.493362 1 2 exp 200 ------- 0 0.0 3.0 55 55
- 11.493362 1 2 exp 200 ------- 0 0.0 3.0 55 55
r 11.497682 2 3 exp 200 ------- 0 0.0 3.0 54 54
+ 11.499202 0 1 exp 200 ------- 0 0.0 3.0 56 56
- 11.499202 0 1 exp 200 ------- 0 0.0 3.0 56 56
r 11.503522 1 2 exp 200 ------- 0 0.0 3.0 55 55
+ 11.503522 2 3 exp 200 ------- 0 0.0 3.0 55 55
- 11.503522 2 3 exp 200 ------- 0 0.0 3.0 55 55
r 11.509362 0 1 exp 200 ------- 0 0.0 3.0 56 56
+ 11.509362 1 2 exp 200 ------- 0 0.0 3.0 56 56
- 11.509362 1 2 exp 200 ------- 0 0.0 3.0 56 56
r 11.513682 2 3 exp 200 ------- 0 0.0 3.0 55 55
+ 11.515202 0 1 exp 200 ------- 0 0.0 3.0 57 57
- 11.515202 0 1 exp 200 ------- 0 0.0 3.0 57 57
r 11.519522 1 2 exp 200 ------- 0 0.0 3.0 56 56
+ 11.519522 2 3 exp 200 ------- 0 0.0 3.0 56 56
- 11.519522 2 3 exp 200 ------- 0 0.0 3.0 56 56
r 11.525362 0 1 exp 200 ------- 0 0.0 3.0 57 57
+ 11.525362 1 2 exp 200 ------- 0 0.0 3.0 57 57
- 11.525362 1 2 exp 200 ------- 0 0.0 3.0 57 57
r 11.529682 2 3 exp 200 ------- 0 0.0 3.0 56 56
+ 11.531202 0 1 exp 200 ------- 0 0.0 3.0 58 58
- 11.531202 0 1 exp 200 ------- 0 0.0 3.0 58 58
r 11.535522 1 2 exp 200 ------- 0 0.0 3.0 57 57
+ 11.535522 2 3 exp 200 ------- 0 0.0 3.0 57 57
- 11.535522 2 3 exp 200 ------- 0 0.0 3.0 57 57
r 11.541362 0 1 exp 200 ------- 0 0.0 3.0 58 58
+ 11.541362 1 2 exp 200 ------- 0 0.0 3.0 58 58
- 11.541362 1 2 exp 200 ------- 0 0.0 3.0 58 58
r 11.545682 2 3 exp 200 ------- 0 0.0 3.0 57 57
+ 11.547202 0 1 exp 200 ------- 0 0.0 3.0 59 59
- 11.547202 0 1 exp 200 ------- 0 0.0 3.0 59 59
r 11.551522 1 2 exp 200 ------- 0 0.0 3.0 58 58
+ 11.551522 2 3 exp 200 ------- 0 0.0 3.0 58 58
- 11.551522 2 3 exp 200 ------- 0 0.0 3.0 58 58
r 11.557362 0 1 exp 200 ------- 0 0.0 3.0 59 59
+ 11.557362 1 2 exp 200 ------- 0 0.0 3.0 59 59
- 11.557362 1 2 exp 200 ------- 0 0.0 3.0 59 59
r 11.561682 2 3 exp 200 ------- 0 0.0 3.0 58 58
+ 11.563202 0 1 exp 200 ------- 0 0.0 3.0 60 60
- 11.563202 0 1 exp 200 ------- 0 0.0 3.0 60 60
r 11.567522 1 2 exp 200 ------- 0 0.0 3.0 59 59
+ 11.567522 2 3 exp 200 ------- 0 0.0 3.0 59 59
- 11.567522 2 3 exp 200 ------- 0 0.0 3.0 59 59
r 11.573362 0 1 exp 200 ------- 0 0.0 3.0 60 60
+ 11.573362 1 2 exp 200 ------- 0 0.0 3.0 60 60
- 11.573362 1 2 exp 200 ------- 0 0.0 3.0 60 60
r 11.577682 2 3 exp 200 ------- 0 0.0 3.0 59 59
+ 11.579202 0 1 exp 200 ------- 0 0.0 3.0 61 61
- 11.579202 0 1 exp 200 ------- 0 0.0 3.0 61 61
r 11.583522 1 2 exp 200 ------- 0 0.0 3.0 60 60
+ 11.583522 2 3 exp 200 ------- 0 0.0 3.0 60 60
- 11.583522 2 3 exp 200 ------- 0 0.0 3.0 60 60
r 11.589362 0 1 exp 200 ------- 0 0.0 3.0 61 61
+ 11.589362 1 2 exp 200 ------- 0 0.0 3.0 61 61
- 11.589362 1 2 exp 200 ------- 0 0.0 3.0 61 61
r 11.593682 2 3 exp 200 ------- 0 0.0 3.0 60 60
+ 11.595202 0 1 exp 200 ------- 0 0.0 3.0 62 62
- 11.595202 0 1 exp 200 ------- 0 0.0 3.0 62 62
r 11.599522 1 2 exp 200 ------- 0 0.0 3.0 61 61
+ 11.599522 2 3 exp 200 ------- 0 0.0 3.0 61 61
- 11.599522 2 3 exp 200 ------- 0 0.0 3.0 61 61
r 11.605362 0 1 exp 200 ------- 0 0.0 3.0 62 62
+ 11.605362 1 2 exp 200 ------- 0 0.0 3.0 62 62
- 11.605362 1 2 exp 200 ------- 0 0.0 3.0 62 62
r 11.609682 2 3 exp 200 ------- 0 0.0 3.0 61 61
+ 11.611202 0 1 exp 200 ------- 0 0.0 3.0 63 63
- 11.611202 0 1 exp 200 ------- 0 0.0 3.0 63 63
r 11.615522 1 2 exp 200 ------- 0 0.0 3.0 62 62
+ 11.615522 2 3 exp 200 ------- 0 0.0 3.0 62 62
- 11.615522 2 3 exp 200 ------- 0 0.0 3.0 62 62
r 11.621362 0 1 exp 200 ------- 0 0.0 3.0 63 63
+ 11.621362 1 2 exp 200 ------- 0 0.0 3.0 63 63
- 11.621362 1 2 exp 200 ------- 0 0.0 3.0 63 63
r 11.625682 2 3 exp 200 ------- 0 0.0 3.0 62 62
+ 11.627202 0 1 exp 200 ------- 0 0.0 3.0 64 64
- 11.627202 0 1 exp 200 ------- 0 0.0 3.0 64 64
r 11.631522 1 2 exp 200 ------- 0 0.0 3.0 63 63
+ 11.631522 2 3 exp 200 ------- 0 0.0 3.0 63 63
- 11.631522 2 3 exp 200 ------- 0 0.0 3.0 63 63
r 11.637362 0 1 exp 200 ------- 0 0.0 3.0 64 64
+ 11.637362 1 2 exp 200 ------- 0 0.0 3.0 64 64
- 11.637362 1 2 exp 200 ------- 0 0.0 3.0 64 64
r 11.641682 2 3 exp 200 ------- 0 0.0 3.0 63 63
+ 11.643202 0 1 exp 200 ------- 0 0.0 3.0 65 65
- 11.643202 0 1 exp 200 ------- 0 0.0 3.0 65 65
r 11.647522 1 2 exp 200 ------- 0 0.0 3.0 64 64
+ 11.647522 2 3 exp 200 ------- 0 0.0 3.0 64 64
- 11.647522 2 3 exp 200 ------- 0 0.0 3.0 64 64
r 11.653362 0 1 exp 200 ------- 0 0.0 3.0 65 65
+ 11.653362 1 2 exp 200 ------- 0 0.0 3.0 65 65
- 11.653362 1 2 exp 200 ------- 0 0.0 3.0 65 65
r 11.657682 2 3 exp 200 ------- 0 0.0 3.0 64 64
+ 11.659202 0 1 exp 200 ------- 0 0.0 3.0 66 66
- 11.659202 0 1 exp 200 ------- 0 0.0 3.0 66 66
r 11.663522 1 2 exp 200 ------- 0 0.0 3.0 65 65
+ 11.663522 2 3 exp 200 ------- 0 0.0 3.0 65 65
- 11.663522 2 3 exp 200 ------- 0 0.0 3.0 65 65
r 11.669362 0 1 exp 200 ------- 0 0.0 3.0 66 66
+ 11.669362 1 2 exp 200 ------- 0 0.0 3.0 66 66
- 11.669362 1 2 exp 200 ------- 0 0.0 3.0 66 66
r 11.673682 2 3 exp 200 ------- 0 0.0 3.0 65 65
+ 11.675202 0 1 exp 200 ------- 0 0.0 3.0 67 67
- 11.675202 0 1 exp 200 ------- 0 0.0 3.0 67 67
r 11.679522 1 2 exp 200 ------- 0 0.0 3.0 66 66
+ 11.679522 2 3 exp 200 ------- 0 0.0 3.0 66 66
- 11.679522 2 3 exp 200 ------- 0 0.0 3.0 66 66
r 11.685362 0 1 exp 200 ------- 0 0.0 3.0 67 67
+ 11.685362 1 2 exp 200 ------- 0 0.0 3.0 67 67
- 11.685362 1 2 exp 200 ------- 0 0.0 3.0 67 67
r 11.689682 2 3 exp 200 ------- 0 0.0 3.0 66 66
+ 11.691202 0 1 exp 200 ------- 0 0.0 3.0 68 68
- 11.691202 0 1 exp 200 ------- 0 0.0 3.0 68 68
r 11.695522 1 2 exp 200 ------- 0 0.0 3.0 67 67
+ 11.695522 2 3 exp 200 ------- 0 0.0 3.0 67 67
- 11.695522 2 3 exp 200 ------- 0 0.0 3.0 67 67
r 11.701362 0 1 exp 200 ------- 0 0.0 3.0 68 68
+ 11.701362 1 2 exp 200 ------- 0 0.0 3.0 68 68
- 11.701362 1 2 exp 200 ------- 0 0.0 3.0 68 68
r 11.705682 2 3 exp 200 ------- 0 0.0 3.0 67 67
+ 11.707202 0 1 exp 200 ------- 0 0.0 3.0 69 69
- 11.707202 0 1 exp 200 ------- 0 0.0 3.0 69 69
r 11.711522 1 2 exp 200 ------- 0 0.0 3.0 68 68
+ 11.711522 2 3 exp 200 ------- 0 0.0 3.0 68 68
- 11.711522 2 3 exp 200 ------- 0 0.0 3.0 68 68
r 11.717362 0 1 exp 200 ------- 0 0.0 3.0 69 69
+ 11.717362 1 2 exp 200 ------- 0 0.0 3.0 69 69
- 11.717362 1 2 exp 200 ------- 0 0.0 3.0 69 69
r 11.721682 2 3 exp 200 ------- 0 0.0 3.0 68 68
+ 11.723202 0 1 exp 200 ------- 0 0.0 3.0 70 70
- 11.723202 0 1 exp 200 ------- 0 0.0 3.0 70 70