+ 0.1 0 1 tcp 40 ------- 1 0.0 3.0 0 0
- 0.1 0 1 tcp 40 ------- 1 0.0 3.0 0 0
+ 0.1 4 1 tcp 40 ------- 0 4.0 5.0 0 1
- 0.1 4 1 tcp 40 ------- 0 4.0 5.0 0 1
r 0.110032 0 1 tcp 40 ------- 1 0.0 3.0 0 0
+ 0.110032 1 2 tcp 40 ------- 1 0.0 3.0 0 0
- 0.110032 1 2 tcp 40 ------- 1 0.0 3.0 0 0
r 0.110032 4 1 tcp 40 ------- 0 4.0 5.0 0 1
+ 0.110032 1 2 tcp 40 ------- 0 4.0 5.0 0 1
- 0.110064 1 2 tcp 40 ------- 0 4.0 5.0 0 1
r 0.120064 1 2 tcp 40 ------- 1 0.0 3.0 0 0
+ 0.120064 2 3 tcp 40 ------- 1 0.0 3.0 0 0
- 0.120064 2 3 tcp 40 ------- 1 0.0 3.0 0 0
r 0.120096 1 2 tcp 40 ------- 0 4.0 5.0 0 1
+ 0.120096 2 5 tcp 40 ------- 0 4.0 5.0 0 1
- 0.120096 2 5 tcp 40 ------- 0 4.0 5.0 0 1
r 0.130096 2 3 tcp 40 ------- 1 0.0 3.0 0 0
+ 0.130096 3 2 ack 40 ------- 1 3.0 0.0 0 2
- 0.130096 3 2 ack 40 ------- 1 3.0 0.0 0 2
r 0.130128 2 5 tcp 40 ------- 0 4.0 5.0 0 1
+ 0.130128 5 2 ack 40 ------- 0 5.0 4.0 0 3
- 0.130128 5 2 ack 40 ------- 0 5.0 4.0 0 3
r 0.140128 3 2 ack 40 ------- 1 3.0 0.0 0 2
+ 0.140128 2 1 ack 40 ------- 1 3.0 0.0 0 2
- 0.140128 2 1 ack 40 ------- 1 3.0 0.0 0 2
r 0.14016 5 2 ack 40 ------- 0 5.0 4.0 0 3
+ 0.14016 2 1 ack 40 ------- 0 5.0 4.0 0 3
- 0.14016 2 1 ack 40 ------- 0 5.0 4.0 0 3
r 0.15016 2 1 ack 40 ------- 1 3.0 0.0 0 2
+ 0.15016 1 0 ack 40 ------- 1 3.0 0.0 0 2
- 0.15016 1 0 ack 40 ------- 1 3.0 0.0 0 2
r 0.150192 2 1 ack 40 ------- 0 5.0 4.0 0 3
+ 0.150192 1 4 ack 40 ------- 0 5.0 4.0 0 3
- 0.150192 1 4 ack 40 ------- 0 5.0 4.0 0 3
r 0.160192 1 0 ack 40 ------- 1 3.0 0.0 0 2
+ 0.160192 0 1 tcp 1040 ------- 1 0.0 3.0 1 4
- 0.160192 0 1 tcp 1040 ------- 1 0.0 3.0 1 4
+ 0.160192 0 1 tcp 1040 ------- 1 0.0 3.0 2 5
r 0.160224 1 4 ack 40 ------- 0 5.0 4.0 0 3
+ 0.160224 4 1 tcp 1040 ------- 0 4.0 5.0 1 6
- 0.160224 4 1 tcp 1040 ------- 0 4.0 5.0 1 6
+ 0.160224 4 1 tcp 1040 ------- 0 4.0 5.0 2 7
- 0.161024 0 1 tcp 1040 ------- 1 0.0 3.0 2 5
- 0.161056 4 1 tcp 1040 ------- 0 4.0 5.0 2 7
r 0.171024 0 1 tcp 1040 ------- 1 0.0 3.0 1 4
+ 0.171024 1 2 tcp 1040 ------- 1 0.0 3.0 1 4
- 0.171024 1 2 tcp 1040 ------- 1 0.0 3.0 1 4
r 0.171056 4 1 tcp 1040 ------- 0 4.0 5.0 1 6
+ 0.171056 1 2 tcp 1040 ------- 0 4.0 5.0 1 6
r 0.171856 0 1 tcp 1040 ------- 1 0.0 3.0 2 5
+ 0.171856 1 2 tcp 1040 ------- 1 0.0 3.0 2 5
- 0.171856 1 2 tcp 1040 ------- 0 4.0 5.0 1 6
r 0.171888 4 1 tcp 1040 ------- 0 4.0 5.0 2 7
+ 0.171888 1 2 tcp 1040 ------- 0 4.0 5.0 2 7
- 0.172688 1 2 tcp 1040 ------- 1 0.0 3.0 2 5
- 0.17352 1 2 tcp 1040 ------- 0 4.0 5.0 2 7
r 0.181856 1 2 tcp 1040 ------- 1 0.0 3.0 1 4
+ 0.181856 2 3 tcp 1040 ------- 1 0.0 3.0 1 4
- 0.181856 2 3 tcp 1040 ------- 1 0.0 3.0 1 4
r 0.182688 1 2 tcp 1040 ------- 0 4.0 5.0 1 6
+ 0.182688 2 5 tcp 1040 ------- 0 4.0 5.0 1 6
- 0.182688 2 5 tcp 1040 ------- 0 4.0 5.0 1 6
r 0.18352 1 2 tcp 1040 ------- 1 0.0 3.0 2 5
+ 0.18352 2 3 tcp 1040 ------- 1 0.0 3.0 2 5
- 0.18352 2 3 tcp 1040 ------- 1 0.0 3.0 2 5
r 0.184352 1 2 tcp 1040 ------- 0 4.0 5.0 2 7
+ 0.184352 2 5 tcp 1040 ------- 0 4.0 5.0 2 7
- 0.184352 2 5 tcp 1040 ------- 0 4.0 5.0 2 7
r 0.192688 2 3 tcp 1040 ------- 1 0.0 3.0 1 4
+ 0.192688 3 2 ack 40 ------- 1 3.0 0.0 1 8
- 0.192688 3 2 ack 40 ------- 1 3.0 0.0 1 8
r 0.19352 2 5 tcp 1040 ------- 0 4.0 5.0 1 6
+ 0.19352 5 2 ack 40 ------- 0 5.0 4.0 1 9
- 0.19352 5 2 ack 40 ------- 0 5.0 4.0 1 9
r 0.194352 2 3 tcp 1040 ------- 1 0.0 3.0 2 5
+ 0.194352 3 2 ack 40 ------- 1 3.0 0.0 2 10
- 0.194352 3 2 ack 40 ------- 1 3.0 0.0 2 10
r 0.195184 2 5 tcp 1040 ------- 0 4.0 5.0 2 7
+ 0.195184 5 2 ack 40 ------- 0 5.0 4.0 2 11
- 0.195184 5 2 ack 40 ------- 0 5.0 4.0 2 11
r 0.20272 3 2 ack 40 ------- 1 3.0 0.0 1 8
+ 0.20272 2 1 ack 40 ------- 1 3.0 0.0 1 8
- 0.20272 2 1 ack 40 ------- 1 3.0 0.0 1 8
r 0.203552 5 2 ack 40 ------- 0 5.0 4.0 1 9
+ 0.203552 2 1 ack 40 ------- 0 5.0 4.0 1 9
- 0.203552 2 1 ack 40 ------- 0 5.0 4.0 1 9
r 0.204384 3 2 ack 40 ------- 1 3.0 0.0 2 10
+ 0.204384 2 1 ack 40 ------- 1 3.0 0.0 2 10
- 0.204384 2 1 ack 40 ------- 1 3.0 0.0 2 10
r 0.205216 5 2 ack 40 ------- 0 5.0 4.0 2 11
+ 0.205216 2 1 ack 40 ------- 0 5.0 4.0 2 11
- 0.205216 2 1 ack 40 ------- 0 5.0 4.0 2 11
r 0.212752 2 1 ack 40 ------- 1 3.0 0.0 1 8
+ 0.212752 1 0 ack 40 ------- 1 3.0 0.0 1 8
- 0.212752 1 0 ack 40 ------- 1 3.0 0.0 1 8
r 0.213584 2 1 ack 40 ------- 0 5.0 4.0 1 9
+ 0.213584 1 4 ack 40 ------- 0 5.0 4.0 1 9
- 0.213584 1 4 ack 40 ------- 0 5.0 4.0 1 9
r 0.214416 2 1 ack 40 ------- 1 3.0 0.0 2 10
+ 0.214416 1 0 ack 40 ------- 1 3.0 0.0 2 10
- 0.214416 1 0 ack 40 ------- 1 3.0 0.0 2 10
r 0.215248 2 1 ack 40 ------- 0 5.0 4.0 2 11
+ 0.215248 1 4 ack 40 ------- 0 5.0 4.0 2 11
- 0.215248 1 4 ack 40 ------- 0 5.0 4.0 2 11
r 0.222784 1 0 ack 40 ------- 1 3.0 0.0 1 8
+ 0.222784 0 1 tcp 1040 ------- 1 0.0 3.0 3 12
- 0.222784 0 1 tcp 1040 ------- 1 0.0 3.0 3 12
+ 0.222784 0 1 tcp 1040 ------- 1 0.0 3.0 4 13
r 0.223616 1 4 ack 40 ------- 0 5.0 4.0 1 9
+ 0.223616 4 1 tcp 1040 ------- 0 4.0 5.0 3 14
- 0.223616 4 1 tcp 1040 ------- 0 4.0 5.0 3 14
+ 0.223616 4 1 tcp 1040 ------- 0 4.0 5.0 4 15
- 0.223616 0 1 tcp 1040 ------- 1 0.0 3.0 4 13
r 0.224448 1 0 ack 40 ------- 1 3.0 0.0 2 10
+ 0.224448 0 1 tcp 1040 ------- 1 0.0 3.0 5 16
+ 0.224448 0 1 tcp 1040 ------- 1 0.0 3.0 6 17
- 0.224448 4 1 tcp 1040 ------- 0 4.0 5.0 4 15
- 0.224448 0 1 tcp 1040 ------- 1 0.0 3.0 5 16
r 0.22528 1 4 ack 40 ------- 0 5.0 4.0 2 11
+ 0.22528 4 1 tcp 1040 ------- 0 4.0 5.0 5 18
+ 0.22528 4 1 tcp 1040 ------- 0 4.0 5.0 6 19
- 0.22528 4 1 tcp 1040 ------- 0 4.0 5.0 5 18
- 0.22528 0 1 tcp 1040 ------- 1 0.0 3.0 6 17
- 0.226112 4 1 tcp 1040 ------- 0 4.0 5.0 6 19
r 0.233616 0 1 tcp 1040 ------- 1 0.0 3.0 3 12
+ 0.233616 1 2 tcp 1040 ------- 1 0.0 3.0 3 12
- 0.233616 1 2 tcp 1040 ------- 1 0.0 3.0 3 12
r 0.234448 4 1 tcp 1040 ------- 0 4.0 5.0 3 14
+ 0.234448 1 2 tcp 1040 ------- 0 4.0 5.0 3 14
r 0.234448 0 1 tcp 1040 ------- 1 0.0 3.0 4 13
+ 0.234448 1 2 tcp 1040 ------- 1 0.0 3.0 4 13
- 0.234448 1 2 tcp 1040 ------- 0 4.0 5.0 3 14
r 0.23528 4 1 tcp 1040 ------- 0 4.0 5.0 4 15
+ 0.23528 1 2 tcp 1040 ------- 0 4.0 5.0 4 15
r 0.23528 0 1 tcp 1040 ------- 1 0.0 3.0 5 16
+ 0.23528 1 2 tcp 1040 ------- 1 0.0 3.0 5 16
- 0.23528 1 2 tcp 1040 ------- 1 0.0 3.0 4 13
r 0.236112 4 1 tcp 1040 ------- 0 4.0 5.0 5 18
+ 0.236112 1 2 tcp 1040 ------- 0 4.0 5.0 5 18
r 0.236112 0 1 tcp 1040 ------- 1 0.0 3.0 6 17
+ 0.236112 1 2 tcp 1040 ------- 1 0.0 3.0 6 17
- 0.236112 1 2 tcp 1040 ------- 0 4.0 5.0 4 15
r 0.236944 4 1 tcp 1040 ------- 0 4.0 5.0 6 19
+ 0.236944 1 2 tcp 1040 ------- 0 4.0 5.0 6 19
- 0.236944 1 2 tcp 1040 ------- 1 0.0 3.0 5 16
- 0.237776 1 2 tcp 1040 ------- 0 4.0 5.0 5 18
- 0.238608 1 2 tcp 1040 ------- 1 0.0 3.0 6 17
- 0.23944 1 2 tcp 1040 ------- 0 4.0 5.0 6 19
r 0.244448 1 2 tcp 1040 ------- 1 0.0 3.0 3 12
+ 0.244448 2 3 tcp 1040 ------- 1 0.0 3.0 3 12
- 0.244448 2 3 tcp 1040 ------- 1 0.0 3.0 3 12
r 0.24528 1 2 tcp 1040 ------- 0 4.0 5.0 3 14
+ 0.24528 2 5 tcp 1040 ------- 0 4.0 5.0 3 14
- 0.24528 2 5 tcp 1040 ------- 0 4.0 5.0 3 14
r 0.246112 1 2 tcp 1040 ------- 1 0.0 3.0 4 13
+ 0.246112 2 3 tcp 1040 ------- 1 0.0 3.0 4 13
- 0.246112 2 3 tcp 1040 ------- 1 0.0 3.0 4 13
r 0.246944 1 2 tcp 1040 ------- 0 4.0 5.0 4 15
+ 0.246944 2 5 tcp 1040 ------- 0 4.0 5.0 4 15
- 0.246944 2 5 tcp 1040 ------- 0 4.0 5.0 4 15
r 0.247776 1 2 tcp 1040 ------- 1 0.0 3.0 5 16
+ 0.247776 2 3 tcp 1040 ------- 1 0.0 3.0 5 16
- 0.247776 2 3 tcp 1040 ------- 1 0.0 3.0 5 16
r 0.248608 1 2 tcp 1040 ------- 0 4.0 5.0 5 18
+ 0.248608 2 5 tcp 1040 ------- 0 4.0 5.0 5 18
- 0.248608 2 5 tcp 1040 ------- 0 4.0 5.0 5 18
r 0.24944 1 2 tcp 1040 ------- 1 0.0 3.0 6 17
+ 0.24944 2 3 tcp 1040 ------- 1 0.0 3.0 6 17
- 0.24944 2 3 tcp 1040 ------- 1 0.0 3.0 6 17
r 0.250272 1 2 tcp 1040 ------- 0 4.0 5.0 6 19
+ 0.250272 2 5 tcp 1040 ------- 0 4.0 5.0 6 19
- 0.250272 2 5 tcp 1040 ------- 0 4.0 5.0 6 19
r 0.25528 2 3 tcp 1040 ------- 1 0.0 3.0 3 12
+ 0.25528 3 2 ack 40 ------- 1 3.0 0.0 3 20
- 0.25528 3 2 ack 40 ------- 1 3.0 0.0 3 20
r 0.256112 2 5 tcp 1040 ------- 0 4.0 5.0 3 14
+ 0.256112 5 2 ack 40 ------- 0 5.0 4.0 3 21
- 0.256112 5 2 ack 40 ------- 0 5.0 4.0 3 21
r 0.256944 2 3 tcp 1040 ------- 1 0.0 3.0 4 13
+ 0.256944 3 2 ack 40 ------- 1 3.0 0.0 4 22
- 0.256944 3 2 ack 40 ------- 1 3.0 0.0 4 22
r 0.257776 2 5 tcp 1040 ------- 0 4.0 5.0 4 15
+ 0.257776 5 2 ack 40 ------- 0 5.0 4.0 4 23
- 0.257776 5 2 ack 40 ------- 0 5.0 4.0 4 23
r 0.258608 2 3 tcp 1040 ------- 1 0.0 3.0 5 16
+ 0.258608 3 2 ack 40 ------- 1 3.0 0.0 5 24
- 0.258608 3 2 ack 40 ------- 1 3.0 0.0 5 24
r 0.25944 2 5 tcp 1040 ------- 0 4.0 5.0 5 18
+ 0.25944 5 2 ack 40 ------- 0 5.0 4.0 5 25
- 0.25944 5 2 ack 40 ------- 0 5.0 4.0 5 25
r 0.260272 2 3 tcp 1040 ------- 1 0.0 3.0 6 17
+ 0.260272 3 2 ack 40 ------- 1 3.0 0.0 6 26
- 0.260272 3 2 ack 40 ------- 1 3.0 0.0 6 26
r 0.261104 2 5 tcp 1040 ------- 0 4.0 5.0 6 19
+ 0.261104 5 2 ack 40 ------- 0 5.0 4.0 6 27
- 0.261104 5 2 ack 40 ------- 0 5.0 4.0 6 27
r 0.265312 3 2 ack 40 ------- 1 3.0 0.0 3 20
+ 0.265312 2 1 ack 40 ------- 1 3.0 0.0 3 20
- 0.265312 2 1 ack 40 ------- 1 3.0 0.0 3 20
r 0.266144 5 2 ack 40 ------- 0 5.0 4.0 3 21
+ 0.266144 2 1 ack 40 ------- 0 5.0 4.0 3 21
- 0.266144 2 1 ack 40 ------- 0 5.0 4.0 3 21
r 0.266976 3 2 ack 40 ------- 1 3.0 0.0 4 22
+ 0.266976 2 1 ack 40 ------- 1 3.0 0.0 4 22
- 0.266976 2 1 ack 40 ------- 1 3.0 0.0 4 22
r 0.267808 5 2 ack 40 ------- 0 5.0 4.0 4 23
+ 0.267808 2 1 ack 40 ------- 0 5.0 4.0 4 23
- 0.267808 2 1 ack 40 ------- 0 5.0 4.0 4 23
r 0.26864 3 2 ack 40 ------- 1 3.0 0.0 5 24
+ 0.26864 2 1 ack 40 ------- 1 3.0 0.0 5 24
- 0.26864 2 1 ack 40 ------- 1 3.0 0.0 5 24
r 0.269472 5 2 ack 40 ------- 0 5.0 4.0 5 25
+ 0.269472 2 1 ack 40 ------- 0 5.0 4.0 5 25
- 0.269472 2 1 ack 40 ------- 0 5.0 4.0 5 25
r 0.270304 3 2 ack 40 ------- 1 3.0 0.0 6 26
+ 0.270304 2 1 ack 40 ------- 1 3.0 0.0 6 26
- 0.270304 2 1 ack 40 ------- 1 3.0 0.0 6 26
r 0.271136 5 2 ack 40 ------- 0 5.0 4.0 6 27
+ 0.271136 2 1 ack 40 ------- 0 5.0 4.0 6 27
- 0.271136 2 1 ack 40 ------- 0 5.0 4.0 6 27
r 0.275344 2 1 ack 40 ------- 1 3.0 0.0 3 20
+ 0.275344 1 0 ack 40 ------- 1 3.0 0.0 3 20
- 0.275344 1 0 ack 40 ------- 1 3.0 0.0 3 20
r 0.276176 2 1 ack 40 ------- 0 5.0 4.0 3 21
+ 0.276176 1 4 ack 40 ------- 0 5.0 4.0 3 21
- 0.276176 1 4 ack 40 ------- 0 5.0 4.0 3 21
r 0.277008 2 1 ack 40 ------- 1 3.0 0.0 4 22
+ 0.277008 1 0 ack 40 ------- 1 3.0 0.0 4 22
- 0.277008 1 0 ack 40 ------- 1 3.0 0.0 4 22
r 0.27784 2 1 ack 40 ------- 0 5.0 4.0 4 23
+ 0.27784 1 4 ack 40 ------- 0 5.0 4.0 4 23
- 0.27784 1 4 ack 40 ------- 0 5.0 4.0 4 23
r 0.278672 2 1 ack 40 ------- 1 3.0 0.0 5 24
+ 0.278672 1 0 ack 40 ------- 1 3.0 0.0 5 24
- 0.278672 1 0 ack 40 ------- 1 3.0 0.0 5 24
r 0.279504 2 1 ack 40 ------- 0 5.0 4.0 5 25
+ 0.279504 1 4 ack 40 ------- 0 5.0 4.0 5 25
- 0.279504 1 4 ack 40 ------- 0 5.0 4.0 5 25
r 0.280336 2 1 ack 40 ------- 1 3.0 0.0 6 26
+ 0.280336 1 0 ack 40 ------- 1 3.0 0.0 6 26
- 0.280336 1 0 ack 40 ------- 1 3.0 0.0 6 26
r 0.281168 2 1 ack 40 ------- 0 5.0 4.0 6 27
+ 0.281168 1 4 ack 40 ------- 0 5.0 4.0 6 27
- 0.281168 1 4 ack 40 ------- 0 5.0 4.0 6 27
r 0.285376 1 0 ack 40 ------- 1 3.0 0.0 3 20
+ 0.285376 0 1 tcp 1040 ------- 1 0.0 3.0 7 28
- 0.285376 0 1 tcp 1040 ------- 1 0.0 3.0 7 28
+ 0.285376 0 1 tcp 1040 ------- 1 0.0 3.0 8 29
r 0.286208 1 4 ack 40 ------- 0 5.0 4.0 3 21
+ 0.286208 4 1 tcp 1040 ------- 0 4.0 5.0 7 30
- 0.286208 4 1 tcp 1040 ------- 0 4.0 5.0 7 30
+ 0.286208 4 1 tcp 1040 ------- 0 4.0 5.0 8 31
- 0.286208 0 1 tcp 1040 ------- 1 0.0 3.0 8 29
r 0.28704 1 0 ack 40 ------- 1 3.0 0.0 4 22
+ 0.28704 0 1 tcp 1040 ------- 1 0.0 3.0 9 32
+ 0.28704 0 1 tcp 1040 ------- 1 0.0 3.0 10 33
- 0.28704 4 1 tcp 1040 ------- 0 4.0 5.0 8 31
- 0.28704 0 1 tcp 1040 ------- 1 0.0 3.0 9 32
r 0.287872 1 4 ack 40 ------- 0 5.0 4.0 4 23
+ 0.287872 4 1 tcp 1040 ------- 0 4.0 5.0 9 34
+ 0.287872 4 1 tcp 1040 ------- 0 4.0 5.0 10 35
- 0.287872 4 1 tcp 1040 ------- 0 4.0 5.0 9 34
- 0.287872 0 1 tcp 1040 ------- 1 0.0 3.0 10 33
r 0.288704 1 0 ack 40 ------- 1 3.0 0.0 5 24
+ 0.288704 0 1 tcp 1040 ------- 1 0.0 3.0 11 36
+ 0.288704 0 1 tcp 1040 ------- 1 0.0 3.0 12 37
- 0.288704 4 1 tcp 1040 ------- 0 4.0 5.0 10 35
- 0.288704 0 1 tcp 1040 ------- 1 0.0 3.0 11 36
r 0.289536 1 4 ack 40 ------- 0 5.0 4.0 5 25
+ 0.289536 4 1 tcp 1040 ------- 0 4.0 5.0 11 38
+ 0.289536 4 1 tcp 1040 ------- 0 4.0 5.0 12 39
- 0.289536 4 1 tcp 1040 ------- 0 4.0 5.0 11 38
- 0.289536 0 1 tcp 1040 ------- 1 0.0 3.0 12 37
r 0.290368 1 0 ack 40 ------- 1 3.0 0.0 6 26
+ 0.290368 0 1 tcp 1040 ------- 1 0.0 3.0 13 40
+ 0.290368 0 1 tcp 1040 ------- 1 0.0 3.0 14 41
- 0.290368 4 1 tcp 1040 ------- 0 4.0 5.0 12 39
- 0.290368 0 1 tcp 1040 ------- 1 0.0 3.0 13 40
r 0.2912 1 4 ack 40 ------- 0 5.0 4.0 6 27
+ 0.2912 4 1 tcp 1040 ------- 0 4.0 5.0 13 42
+ 0.2912 4 1 tcp 1040 ------- 0 4.0 5.0 14 43
- 0.2912 4 1 tcp 1040 ------- 0 4.0 5.0 13 42
- 0.2912 0 1 tcp 1040 ------- 1 0.0 3.0 14 41
- 0.292032 4 1 tcp 1040 ------- 0 4.0 5.0 14 43
r 0.296208 0 1 tcp 1040 ------- 1 0.0 3.0 7 28
+ 0.296208 1 2 tcp 1040 ------- 1 0.0 3.0 7 28
- 0.296208 1 2 tcp 1040 ------- 1 0.0 3.0 7 28
r 0.29704 4 1 tcp 1040 ------- 0 4.0 5.0 7 30
+ 0.29704 1 2 tcp 1040 ------- 0 4.0 5.0 7 30
r 0.29704 0 1 tcp 1040 ------- 1 0.0 3.0 8 29
+ 0.29704 1 2 tcp 1040 ------- 1 0.0 3.0 8 29
- 0.29704 1 2 tcp 1040 ------- 0 4.0 5.0 7 30
r 0.297872 4 1 tcp 1040 ------- 0 4.0 5.0 8 31
+ 0.297872 1 2 tcp 1040 ------- 0 4.0 5.0 8 31
r 0.297872 0 1 tcp 1040 ------- 1 0.0 3.0 9 32
+ 0.297872 1 2 tcp 1040 ------- 1 0.0 3.0 9 32
- 0.297872 1 2 tcp 1040 ------- 1 0.0 3.0 8 29
r 0.298704 4 1 tcp 1040 ------- 0 4.0 5.0 9 34
+ 0.298704 1 2 tcp 1040 ------- 0 4.0 5.0 9 34
r 0.298704 0 1 tcp 1040 ------- 1 0.0 3.0 10 33
+ 0.298704 1 2 tcp 1040 ------- 1 0.0 3.0 10 33
- 0.298704 1 2 tcp 1040 ------- 0 4.0 5.0 8 31
r 0.299536 4 1 tcp 1040 ------- 0 4.0 5.0 10 35
+ 0.299536 1 2 tcp 1040 ------- 0 4.0 5.0 10 35
r 0.299536 0 1 tcp 1040 ------- 1 0.0 3.0 11 36
+ 0.299536 1 2 tcp 1040 ------- 1 0.0 3.0 11 36
- 0.299536 1 2 tcp 1040 ------- 1 0.0 3.0 9 32
r 0.300368 4 1 tcp 1040 ------- 0 4.0 5.0 11 38
+ 0.300368 1 2 tcp 1040 ------- 0 4.0 5.0 11 38
r 0.300368 0 1 tcp 1040 ------- 1 0.0 3.0 12 37
+ 0.300368 1 2 tcp 1040 ------- 1 0.0 3.0 12 37
- 0.300368 1 2 tcp 1040 ------- 0 4.0 5.0 9 34
r 0.3012 4 1 tcp 1040 ------- 0 4.0 5.0 12 39
+ 0.3012 1 2 tcp 1040 ------- 0 4.0 5.0 12 39
r 0.3012 0 1 tcp 1040 ------- 1 0.0 3.0 13 40
+ 0.3012 1 2 tcp 1040 ------- 1 0.0 3.0 13 40
- 0.3012 1 2 tcp 1040 ------- 1 0.0 3.0 10 33
r 0.302032 4 1 tcp 1040 ------- 0 4.0 5.0 13 42
+ 0.302032 1 2 tcp 1040 ------- 0 4.0 5.0 13 42
r 0.302032 0 1 tcp 1040 ------- 1 0.0 3.0 14 41
+ 0.302032 1 2 tcp 1040 ------- 1 0.0 3.0 14 41
- 0.302032 1 2 tcp 1040 ------- 0 4.0 5.0 10 35
r 0.302864 4 1 tcp 1040 ------- 0 4.0 5.0 14 43
+ 0.302864 1 2 tcp 1040 ------- 0 4.0 5.0 14 43
- 0.302864 1 2 tcp 1040 ------- 1 0.0 3.0 11 36
- 0.303696 1 2 tcp 1040 ------- 0 4.0 5.0 11 38
- 0.304528 1 2 tcp 1040 ------- 1 0.0 3.0 12 37
- 0.30536 1 2 tcp 1040 ------- 0 4.0 5.0 12 39
- 0.306192 1 2 tcp 1040 ------- 1 0.0 3.0 13 40
- 0.307024 1 2 tcp 1040 ------- 0 4.0 5.0 13 42
r 0.30704 1 2 tcp 1040 ------- 1 0.0 3.0 7 28
+ 0.30704 2 3 tcp 1040 ------- 1 0.0 3.0 7 28
- 0.30704 2 3 tcp 1040 ------- 1 0.0 3.0 7 28
- 0.307856 1 2 tcp 1040 ------- 1 0.0 3.0 14 41
r 0.307872 1 2 tcp 1040 ------- 0 4.0 5.0 7 30
+ 0.307872 2 5 tcp 1040 ------- 0 4.0 5.0 7 30
- 0.307872 2 5 tcp 1040 ------- 0 4.0 5.0 7 30
- 0.308688 1 2 tcp 1040 ------- 0 4.0 5.0 14 43
r 0.308704 1 2 tcp 1040 ------- 1 0.0 3.0 8 29
+ 0.308704 2 3 tcp 1040 ------- 1 0.0 3.0 8 29
- 0.308704 2 3 tcp 1040 ------- 1 0.0 3.0 8 29
r 0.309536 1 2 tcp 1040 ------- 0 4.0 5.0 8 31
+ 0.309536 2 5 tcp 1040 ------- 0 4.0 5.0 8 31
- 0.309536 2 5 tcp 1040 ------- 0 4.0 5.0 8 31
r 0.310368 1 2 tcp 1040 ------- 1 0.0 3.0 9 32
+ 0.310368 2 3 tcp 1040 ------- 1 0.0 3.0 9 32
- 0.310368 2 3 tcp 1040 ------- 1 0.0 3.0 9 32
r 0.3112 1 2 tcp 1040 ------- 0 4.0 5.0 9 34
+ 0.3112 2 5 tcp 1040 ------- 0 4.0 5.0 9 34
- 0.3112 2 5 tcp 1040 ------- 0 4.0 5.0 9 34
r 0.312032 1 2 tcp 1040 ------- 1 0.0 3.0 10 33
+ 0.312032 2 3 tcp 1040 ------- 1 0.0 3.0 10 33
- 0.312032 2 3 tcp 1040 ------- 1 0.0 3.0 10 33
r 0.312864 1 2 tcp 1040 ------- 0 4.0 5.0 10 35
+ 0.312864 2 5 tcp 1040 ------- 0 4.0 5.0 10 35
- 0.312864 2 5 tcp 1040 ------- 0 4.0 5.0 10 35
r 0.313696 1 2 tcp 1040 ------- 1 0.0 3.0 11 36
+ 0.313696 2 3 tcp 1040 ------- 1 0.0 3.0 11 36
- 0.313696 2 3 tcp 1040 ------- 1 0.0 3.0 11 36
r 0.314528 1 2 tcp 1040 ------- 0 4.0 5.0 11 38
+ 0.314528 2 5 tcp 1040 ------- 0 4.0 5.0 11 38
- 0.314528 2 5 tcp 1040 ------- 0 4.0 5.0 11 38
r 0.31536 1 2 tcp 1040 ------- 1 0.0 3.0 12 37
+ 0.31536 2 3 tcp 1040 ------- 1 0.0 3.0 12 37
- 0.31536 2 3 tcp 1040 ------- 1 0.0 3.0 12 37
r 0.316192 1 2 tcp 1040 ------- 0 4.0 5.0 12 39
+ 0.316192 2 5 tcp 1040 ------- 0 4.0 5.0 12 39
- 0.316192 2 5 tcp 1040 ------- 0 4.0 5.0 12 39
r 0.317024 1 2 tcp 1040 ------- 1 0.0 3.0 13 40
+ 0.317024 2 3 tcp 1040 ------- 1 0.0 3.0 13 40
- 0.317024 2 3 tcp 1040 ------- 1 0.0 3.0 13 40
r 0.317856 1 2 tcp 1040 ------- 0 4.0 5.0 13 42
+ 0.317856 2 5 tcp 1040 ------- 0 4.0 5.0 13 42
- 0.317856 2 5 tcp 1040 ------- 0 4.0 5.0 13 42
r 0.317872 2 3 tcp 1040 ------- 1 0.0 3.0 7 28
+ 0.317872 3 2 ack 40 ------- 1 3.0 0.0 7 44
- 0.317872 3 2 ack 40 ------- 1 3.0 0.0 7 44
r 0.318688 1 2 tcp 1040 ------- 1 0.0 3.0 14 41
+ 0.318688 2 3 tcp 1040 ------- 1 0.0 3.0 14 41
- 0.318688 2 3 tcp 1040 ------- 1 0.0 3.0 14 41
r 0.318704 2 5 tcp 1040 ------- 0 4.0 5.0 7 30
+ 0.318704 5 2 ack 40 ------- 0 5.0 4.0 7 45
- 0.318704 5 2 ack 40 ------- 0 5.0 4.0 7 45
r 0.31952 1 2 tcp 1040 ------- 0 4.0 5.0 14 43
+ 0.31952 2 5 tcp 1040 ------- 0 4.0 5.0 14 43
- 0.31952 2 5 tcp 1040 ------- 0 4.0 5.0 14 43
r 0.319536 2 3 tcp 1040 ------- 1 0.0 3.0 8 29
+ 0.319536 3 2 ack 40 ------- 1 3.0 0.0 8 46
- 0.319536 3 2 ack 40 ------- 1 3.0 0.0 8 46
r 0.320368 2 5 tcp 1040 ------- 0 4.0 5.0 8 31
+ 0.320368 5 2 ack 40 ------- 0 5.0 4.0 8 47
- 0.320368 5 2 ack 40 ------- 0 5.0 4.0 8 47
r 0.3212 2 3 tcp 1040 ------- 1 0.0 3.0 9 32
+ 0.3212 3 2 ack 40 ------- 1 3.0 0.0 9 48
- 0.3212 3 2 ack 40 ------- 1 3.0 0.0 9 48
r 0.322032 2 5 tcp 1040 ------- 0 4.0 5.0 9 34
+ 0.322032 5 2 ack 40 ------- 0 5.0 4.0 9 49
- 0.322032 5 2 ack 40 ------- 0 5.0 4.0 9 49
r 0.322864 2 3 tcp 1040 ------- 1 0.0 3.0 10 33
+ 0.322864 3 2 ack 40 ------- 1 3.0 0.0 10 50
- 0.322864 3 2 ack 40 ------- 1 3.0 0.0 10 50
r 0.323696 2 5 tcp 1040 ------- 0 4.0 5.0 10 35
+ 0.323696 5 2 ack 40 ------- 0 5.0 4.0 10 51
- 0.323696 5 2 ack 40 ------- 0 5.0 4.0 10 51
r 0.324528 2 3 tcp 1040 ------- 1 0.0 3.0 11 36
+ 0.324528 3 2 ack 40 ------- 1 3.0 0.0 11 52
- 0.324528 3 2 ack 40 ------- 1 3.0 0.0 11 52
r 0.32536 2 5 tcp 1040 ------- 0 4.0 5.0 11 38
+ 0.32536 5 2 ack 40 ------- 0 5.0 4.0 11 53
- 0.32536 5 2 ack 40 ------- 0 5.0 4.0 11 53
r 0.326192 2 3 tcp 1040 ------- 1 0.0 3.0 12 37
+ 0.326192 3 2 ack 40 ------- 1 3.0 0.0 12 54
- 0.326192 3 2 ack 40 ------- 1 3.0 0.0 12 54
r 0.327024 2 5 tcp 1040 ------- 0 4.0 5.0 12 39
+ 0.327024 5 2 ack 40 ------- 0 5.0 4.0 12 55
- 0.327024 5 2 ack 40 ------- 0 5.0 4.0 12 55
r 0.327856 2 3 tcp 1040 ------- 1 0.0 3.0 13 40
+ 0.327856 3 2 ack 40 ------- 1 3.0 0.0 13 56
- 0.327856 3 2 ack 40 ------- 1 3.0 0.0 13 56
r 0.327904 3 2 ack 40 ------- 1 3.0 0.0 7 44
+ 0.327904 2 1 ack 40 ------- 1 3.0 0.0 7 44
- 0.327904 2 1 ack 40 ------- 1 3.0 0.0 7 44
r 0.328688 2 5 tcp 1040 ------- 0 4.0 5.0 13 42
+ 0.328688 5 2 ack 40 ------- 0 5.0 4.0 13 57
- 0.328688 5 2 ack 40 ------- 0 5.0 4.0 13 57
r 0.328736 5 2 ack 40 ------- 0 5.0 4.0 7 45
+ 0.328736 2 1 ack 40 ------- 0 5.0 4.0 7 45
- 0.328736 2 1 ack 40 ------- 0 5.0 4.0 7 45
r 0.32952 2 3 tcp 1040 ------- 1 0.0 3.0 14 41
+ 0.32952 3 2 ack 40 ------- 1 3.0 0.0 14 58
- 0.32952 3 2 ack 40 ------- 1 3.0 0.0 14 58
r 0.329568 3 2 ack 40 ------- 1 3.0 0.0 8 46
+ 0.329568 2 1 ack 40 ------- 1 3.0 0.0 8 46
- 0.329568 2 1 ack 40 ------- 1 3.0 0.0 8 46
r 0.330352 2 5 tcp 1040 ------- 0 4.0 5.0 14 43
+ 0.330352 5 2 ack 40 ------- 0 5.0 4.0 14 59
- 0.330352 5 2 ack 40 ------- 0 5.0 4.0 14 59
r 0.3304 5 2 ack 40 ------- 0 5.0 4.0 8 47
+ 0.3304 2 1 ack 40 ------- 0 5.0 4.0 8 47
- 0.3304 2 1 ack 40 ------- 0 5.0 4.0 8 47
r 0.331232 3 2 ack 40 ------- 1 3.0 0.0 9 48
+ 0.331232 2 1 ack 40 ------- 1 3.0 0.0 9 48
- 0.331232 2 1 ack 40 ------- 1 3.0 0.0 9 48
r 0.332064 5 2 ack 40 ------- 0 5.0 4.0 9 49
+ 0.332064 2 1 ack 40 ------- 0 5.0 4.0 9 49
- 0.332064 2 1 ack 40 ------- 0 5.0 4.0 9 49
r 0.332896 3 2 ack 40 ------- 1 3.0 0.0 10 50
+ 0.332896 2 1 ack 40 ------- 1 3.0 0.0 10 50
- 0.332896 2 1 ack 40 ------- 1 3.0 0.0 10 50
r 0.333728 5 2 ack 40 ------- 0 5.0 4.0 10 51
+ 0.333728 2 1 ack 40 ------- 0 5.0 4.0 10 51
- 0.333728 2 1 ack 40 ------- 0 5.0 4.0 10 51
r 0.33456 3 2 ack 40 ------- 1 3.0 0.0 11 52
+ 0.33456 2 1 ack 40 ------- 1 3.0 0.0 11 52
- 0.33456 2 1 ack 40 ------- 1 3.0 0.0 11 52
r 0.335392 5 2 ack 40 ------- 0 5.0 4.0 11 53
+ 0.335392 2 1 ack 40 ------- 0 5.0 4.0 11 53
- 0.335392 2 1 ack 40 ------- 0 5.0 4.0 11 53
r 0.336224 3 2 ack 40 ------- 1 3.0 0.0 12 54
+ 0.336224 2 1 ack 40 ------- 1 3.0 0.0 12 54
- 0.336224 2 1 ack 40 ------- 1 3.0 0.0 12 54
r 0.337056 5 2 ack 40 ------- 0 5.0 4.0 12 55
+ 0.337056 2 1 ack 40 ------- 0 5.0 4.0 12 55
- 0.337056 2 1 ack 40 ------- 0 5.0 4.0 12 55
r 0.337888 3 2 ack 40 ------- 1 3.0 0.0 13 56
+ 0.337888 2 1 ack 40 ------- 1 3.0 0.0 13 56
- 0.337888 2 1 ack 40 ------- 1 3.0 0.0 13 56
r 0.337936 2 1 ack 40 ------- 1 3.0 0.0 7 44
+ 0.337936 1 0 ack 40 ------- 1 3.0 0.0 7 44
- 0.337936 1 0 ack 40 ------- 1 3.0 0.0 7 44
r 0.33872 5 2 ack 40 ------- 0 5.0 4.0 13 57
+ 0.33872 2 1 ack 40 ------- 0 5.0 4.0 13 57
- 0.33872 2 1 ack 40 ------- 0 5.0 4.0 13 57
r 0.338768 2 1 ack 40 ------- 0 5.0 4.0 7 45
+ 0.338768 1 4 ack 40 ------- 0 5.0 4.0 7 45
- 0.338768 1 4 ack 40 ------- 0 5.0 4.0 7 45
r 0.339552 3 2 ack 40 ------- 1 3.0 0.0 14 58
+ 0.339552 2 1 ack 40 ------- 1 3.0 0.0 14 58
- 0.339552 2 1 ack 40 ------- 1 3.0 0.0 14 58
r 0.3396 2 1 ack 40 ------- 1 3.0 0.0 8 46
+ 0.3396 1 0 ack 40 ------- 1 3.0 0.0 8 46
- 0.3396 1 0 ack 40 ------- 1 3.0 0.0 8 46
r 0.340384 5 2 ack 40 ------- 0 5.0 4.0 14 59
+ 0.340384 2 1 ack 40 ------- 0 5.0 4.0 14 59
- 0.340384 2 1 ack 40 ------- 0 5.0 4.0 14 59
r 0.340432 2 1 ack 40 ------- 0 5.0 4.0 8 47
+ 0.340432 1 4 ack 40 ------- 0 5.0 4.0 8 47
- 0.340432 1 4 ack 40 ------- 0 5.0 4.0 8 47
r 0.341264 2 1 ack 40 ------- 1 3.0 0.0 9 48
+ 0.341264 1 0 ack 40 ------- 1 3.0 0.0 9 48
- 0.341264 1 0 ack 40 ------- 1 3.0 0.0 9 48
r 0.342096 2 1 ack 40 ------- 0 5.0 4.0 9 49
+ 0.342096 1 4 ack 40 ------- 0 5.0 4.0 9 49
- 0.342096 1 4 ack 40 ------- 0 5.0 4.0 9 49
r 0.342928 2 1 ack 40 ------- 1 3.0 0.0 10 50
+ 0.342928 1 0 ack 40 ------- 1 3.0 0.0 10 50
- 0.342928 1 0 ack 40 ------- 1 3.0 0.0 10 50
r 0.34376 2 1 ack 40 ------- 0 5.0 4.0 10 51
+ 0.34376 1 4 ack 40 ------- 0 5.0 4.0 10 51
- 0.34376 1 4 ack 40 ------- 0 5.0 4.0 10 51
r 0.344592 2 1 ack 40 ------- 1 3.0 0.0 11 52
+ 0.344592 1 0 ack 40 ------- 1 3.0 0.0 11 52
- 0.344592 1 0 ack 40 ------- 1 3.0 0.0 11 52
r 0.345424 2 1 ack 40 ------- 0 5.0 4.0 11 53
+ 0.345424 1 4 ack 40 ------- 0 5.0 4.0 11 53
- 0.345424 1 4 ack 40 ------- 0 5.0 4.0 11 53
r 0.346256 2 1 ack 40 ------- 1 3.0 0.0 12 54
+ 0.346256 1 0 ack 40 ------- 1 3.0 0.0 12 54
- 0.346256 1 0 ack 40 ------- 1 3.0 0.0 12 54
r 0.347088 2 1 ack 40 ------- 0 5.0 4.0 12 55
+ 0.347088 1 4 ack 40 ------- 0 5.0 4.0 12 55
- 0.347088 1 4 ack 40 ------- 0 5.0 4.0 12 55
r 0.34792 2 1 ack 40 ------- 1 3.0 0.0 13 56
+ 0.34792 1 0 ack 40 ------- 1 3.0 0.0 13 56
- 0.34792 1 0 ack 40 ------- 1 3.0 0.0 13 56
r 0.347968 1 0 ack 40 ------- 1 3.0 0.0 7 44
+ 0.347968 0 1 tcp 1040 ------- 1 0.0 3.0 15 60
- 0.347968 0 1 tcp 1040 ------- 1 0.0 3.0 15 60
+ 0.347968 0 1 tcp 1040 ------- 1 0.0 3.0 16 61
r 0.348752 2 1 ack 40 ------- 0 5.0 4.0 13 57
+ 0.348752 1 4 ack 40 ------- 0 5.0 4.0 13 57
- 0.348752 1 4 ack 40 ------- 0 5.0 4.0 13 57
r 0.3488 1 4 ack 40 ------- 0 5.0 4.0 7 45
+ 0.3488 4 1 tcp 1040 ------- 0 4.0 5.0 15 62
- 0.3488 4 1 tcp 1040 ------- 0 4.0 5.0 15 62
+ 0.3488 4 1 tcp 1040 ------- 0 4.0 5.0 16 63
- 0.3488 0 1 tcp 1040 ------- 1 0.0 3.0 16 61
r 0.349584 2 1 ack 40 ------- 1 3.0 0.0 14 58
+ 0.349584 1 0 ack 40 ------- 1 3.0 0.0 14 58
- 0.349584 1 0 ack 40 ------- 1 3.0 0.0 14 58
r 0.349632 1 0 ack 40 ------- 1 3.0 0.0 8 46
+ 0.349632 0 1 tcp 1040 ------- 1 0.0 3.0 17 64
+ 0.349632 0 1 tcp 1040 ------- 1 0.0 3.0 18 65
- 0.349632 4 1 tcp 1040 ------- 0 4.0 5.0 16 63
- 0.349632 0 1 tcp 1040 ------- 1 0.0 3.0 17 64
r 0.350416 2 1 ack 40 ------- 0 5.0 4.0 14 59
+ 0.350416 1 4 ack 40 ------- 0 5.0 4.0 14 59
- 0.350416 1 4 ack 40 ------- 0 5.0 4.0 14 59
r 0.350464 1 4 ack 40 ------- 0 5.0 4.0 8 47
+ 0.350464 4 1 tcp 1040 ------- 0 4.0 5.0 17 66
+ 0.350464 4 1 tcp 1040 ------- 0 4.0 5.0 18 67
- 0.350464 4 1 tcp 1040 ------- 0 4.0 5.0 17 66
- 0.350464 0 1 tcp 1040 ------- 1 0.0 3.0 18 65
r 0.351296 1 0 ack 40 ------- 1 3.0 0.0 9 48
+ 0.351296 0 1 tcp 1040 ------- 1 0.0 3.0 19 68
+ 0.351296 0 1 tcp 1040 ------- 1 0.0 3.0 20 69
- 0.351296 4 1 tcp 1040 ------- 0 4.0 5.0 18 67
- 0.351296 0 1 tcp 1040 ------- 1 0.0 3.0 19 68
r 0.352128 1 4 ack 40 ------- 0 5.0 4.0 9 49
+ 0.352128 4 1 tcp 1040 ------- 0 4.0 5.0 19 70
+ 0.352128 4 1 tcp 1040 ------- 0 4.0 5.0 20 71
- 0.352128 4 1 tcp 1040 ------- 0 4.0 5.0 19 70
- 0.352128 0 1 tcp 1040 ------- 1 0.0 3.0 20 69
r 0.35296 1 0 ack 40 ------- 1 3.0 0.0 10 50
+ 0.35296 0 1 tcp 1040 ------- 1 0.0 3.0 21 72
+ 0.35296 0 1 tcp 1040 ------- 1 0.0 3.0 22 73
- 0.35296 4 1 tcp 1040 ------- 0 4.0 5.0 20 71
- 0.35296 0 1 tcp 1040 ------- 1 0.0 3.0 21 72
r 0.353792 1 4 ack 40 ------- 0 5.0 4.0 10 51
+ 0.353792 4 1 tcp 1040 ------- 0 4.0 5.0 21 74
+ 0.353792 4 1 tcp 1040 ------- 0 4.0 5.0 22 75
- 0.353792 4 1 tcp 1040 ------- 0 4.0 5.0 21 74
- 0.353792 0 1 tcp 1040 ------- 1 0.0 3.0 22 73
r 0.354624 1 0 ack 40 ------- 1 3.0 0.0 11 52
+ 0.354624 0 1 tcp 1040 ------- 1 0.0 3.0 23 76
+ 0.354624 0 1 tcp 1040 ------- 1 0.0 3.0 24 77
- 0.354624 4 1 tcp 1040 ------- 0 4.0 5.0 22 75
- 0.354624 0 1 tcp 1040 ------- 1 0.0 3.0 23 76
r 0.355456 1 4 ack 40 ------- 0 5.0 4.0 11 53
+ 0.355456 4 1 tcp 1040 ------- 0 4.0 5.0 23 78
+ 0.355456 4 1 tcp 1040 ------- 0 4.0 5.0 24 79
- 0.355456 4 1 tcp 1040 ------- 0 4.0 5.0 23 78
- 0.355456 0 1 tcp 1040 ------- 1 0.0 3.0 24 77
r 0.356288 1 0 ack 40 ------- 1 3.0 0.0 12 54
+ 0.356288 0 1 tcp 1040 ------- 1 0.0 3.0 25 80
+ 0.356288 0 1 tcp 1040 ------- 1 0.0 3.0 26 81
- 0.356288 4 1 tcp 1040 ------- 0 4.0 5.0 24 79
- 0.356288 0 1 tcp 1040 ------- 1 0.0 3.0 25 80
r 0.35712 1 4 ack 40 ------- 0 5.0 4.0 12 55
+ 0.35712 4 1 tcp 1040 ------- 0 4.0 5.0 25 82
+ 0.35712 4 1 tcp 1040 ------- 0 4.0 5.0 26 83
- 0.35712 4 1 tcp 1040 ------- 0 4.0 5.0 25 82
- 0.35712 0 1 tcp 1040 ------- 1 0.0 3.0 26 81
r 0.357952 1 0 ack 40 ------- 1 3.0 0.0 13 56
+ 0.357952 0 1 tcp 1040 ------- 1 0.0 3.0 27 84
+ 0.357952 0 1 tcp 1040 ------- 1 0.0 3.0 28 85
- 0.357952 4 1 tcp 1040 ------- 0 4.0 5.0 26 83
- 0.357952 0 1 tcp 1040 ------- 1 0.0 3.0 27 84
r 0.358784 1 4 ack 40 ------- 0 5.0 4.0 13 57
+ 0.358784 4 1 tcp 1040 ------- 0 4.0 5.0 27 86
+ 0.358784 4 1 tcp 1040 ------- 0 4.0 5.0 28 87
- 0.358784 4 1 tcp 1040 ------- 0 4.0 5.0 27 86
- 0.358784 0 1 tcp 1040 ------- 1 0.0 3.0 28 85
r 0.3588 0 1 tcp 1040 ------- 1 0.0 3.0 15 60
+ 0.3588 1 2 tcp 1040 ------- 1 0.0 3.0 15 60
- 0.3588 1 2 tcp 1040 ------- 1 0.0 3.0 15 60
r 0.359616 1 0 ack 40 ------- 1 3.0 0.0 14 58
+ 0.359616 0 1 tcp 1040 ------- 1 0.0 3.0 29 88
+ 0.359616 0 1 tcp 1040 ------- 1 0.0 3.0 30 89
- 0.359616 4 1 tcp 1040 ------- 0 4.0 5.0 28 87
- 0.359616 0 1 tcp 1040 ------- 1 0.0 3.0 29 88
r 0.359632 4 1 tcp 1040 ------- 0 4.0 5.0 15 62
+ 0.359632 1 2 tcp 1040 ------- 0 4.0 5.0 15 62
r 0.359632 0 1 tcp 1040 ------- 1 0.0 3.0 16 61
+ 0.359632 1 2 tcp 1040 ------- 1 0.0 3.0 16 61
- 0.359632 1 2 tcp 1040 ------- 0 4.0 5.0 15 62
r 0.360448 1 4 ack 40 ------- 0 5.0 4.0 14 59
+ 0.360448 4 1 tcp 1040 ------- 0 4.0 5.0 29 90
+ 0.360448 4 1 tcp 1040 ------- 0 4.0 5.0 30 91
- 0.360448 4 1 tcp 1040 ------- 0 4.0 5.0 29 90
- 0.360448 0 1 tcp 1040 ------- 1 0.0 3.0 30 89
r 0.360464 4 1 tcp 1040 ------- 0 4.0 5.0 16 63
+ 0.360464 1 2 tcp 1040 ------- 0 4.0 5.0 16 63
r 0.360464 0 1 tcp 1040 ------- 1 0.0 3.0 17 64
+ 0.360464 1 2 tcp 1040 ------- 1 0.0 3.0 17 64
- 0.360464 1 2 tcp 1040 ------- 1 0.0 3.0 16 61
- 0.36128 4 1 tcp 1040 ------- 0 4.0 5.0 30 91
r 0.361296 4 1 tcp 1040 ------- 0 4.0 5.0 17 66
+ 0.361296 1 2 tcp 1040 ------- 0 4.0 5.0 17 66
r 0.361296 0 1 tcp 1040 ------- 1 0.0 3.0 18 65
+ 0.361296 1 2 tcp 1040 ------- 1 0.0 3.0 18 65
- 0.361296 1 2 tcp 1040 ------- 0 4.0 5.0 16 63
r 0.362128 4 1 tcp 1040 ------- 0 4.0 5.0 18 67
+ 0.362128 1 2 tcp 1040 ------- 0 4.0 5.0 18 67
r 0.362128 0 1 tcp 1040 ------- 1 0.0 3.0 19 68
+ 0.362128 1 2 tcp 1040 ------- 1 0.0 3.0 19 68
- 0.362128 1 2 tcp 1040 ------- 1 0.0 3.0 17 64
r 0.36296 4 1 tcp 1040 ------- 0 4.0 5.0 19 70
+ 0.36296 1 2 tcp 1040 ------- 0 4.0 5.0 19 70
r 0.36296 0 1 tcp 1040 ------- 1 0.0 3.0 20 69
+ 0.36296 1 2 tcp 1040 ------- 1 0.0 3.0 20 69
- 0.36296 1 2 tcp 1040 ------- 0 4.0 5.0 17 66
r 0.363792 4 1 tcp 1040 ------- 0 4.0 5.0 20 71
+ 0.363792 1 2 tcp 1040 ------- 0 4.0 5.0 20 71
r 0.363792 0 1 tcp 1040 ------- 1 0.0 3.0 21 72
+ 0.363792 1 2 tcp 1040 ------- 1 0.0 3.0 21 72
- 0.363792 1 2 tcp 1040 ------- 1 0.0 3.0 18 65
r 0.364624 4 1 tcp 1040 ------- 0 4.0 5.0 21 74
+ 0.364624 1 2 tcp 1040 ------- 0 4.0 5.0 21 74
r 0.364624 0 1 tcp 1040 ------- 1 0.0 3.0 22 73
+ 0.364624 1 2 tcp 1040 ------- 1 0.0 3.0 22 73
- 0.364624 1 2 tcp 1040 ------- 0 4.0 5.0 18 67
r 0.365456 4 1 tcp 1040 ------- 0 4.0 5.0 22 75
+ 0.365456 1 2 tcp 1040 ------- 0 4.0 5.0 22 75
r 0.365456 0 1 tcp 1040 ------- 1 0.0 3.0 23 76
+ 0.365456 1 2 tcp 1040 ------- 1 0.0 3.0 23 76
- 0.365456 1 2 tcp 1040 ------- 1 0.0 3.0 19 68
r 0.366288 4 1 tcp 1040 ------- 0 4.0 5.0 23 78
+ 0.366288 1 2 tcp 1040 ------- 0 4.0 5.0 23 78
r 0.366288 0 1 tcp 1040 ------- 1 0.0 3.0 24 77