+ 0.2 0 1 tcp 40 ------- 14 0.0 3.0 0 0
- 0.2 0 1 tcp 40 ------- 14 0.0 3.0 0 0
r 0.210032 0 1 tcp 40 ------- 14 0.0 3.0 0 0
+ 0.210032 1 2 tcp 40 ------- 14 0.0 3.0 0 0
- 0.210032 1 2 tcp 40 ------- 14 0.0 3.0 0 0
r 0.220064 1 2 tcp 40 ------- 14 0.0 3.0 0 0
+ 0.220064 2 3 tcp 40 ------- 14 0.0 3.0 0 0
- 0.220064 2 3 tcp 40 ------- 14 0.0 3.0 0 0
r 0.230096 2 3 tcp 40 ------- 14 0.0 3.0 0 0
+ 0.230096 3 2 ack 40 ------- 14 3.0 0.0 0 1
- 0.230096 3 2 ack 40 ------- 14 3.0 0.0 0 1
r 0.240128 3 2 ack 40 ------- 14 3.0 0.0 0 1
+ 0.240128 2 1 ack 40 ------- 14 3.0 0.0 0 1
- 0.240128 2 1 ack 40 ------- 14 3.0 0.0 0 1
r 0.25016 2 1 ack 40 ------- 14 3.0 0.0 0 1
+ 0.25016 1 0 ack 40 ------- 14 3.0 0.0 0 1
- 0.25016 1 0 ack 40 ------- 14 3.0 0.0 0 1
r 0.260192 1 0 ack 40 ------- 14 3.0 0.0 0 1
+ 0.260192 0 1 tcp 1040 ------- 14 0.0 3.0 1 2
- 0.260192 0 1 tcp 1040 ------- 14 0.0 3.0 1 2
+ 0.260192 0 1 tcp 1040 ------- 14 0.0 3.0 2 3
- 0.261024 0 1 tcp 1040 ------- 14 0.0 3.0 2 3
r 0.271024 0 1 tcp 1040 ------- 14 0.0 3.0 1 2
+ 0.271024 1 2 tcp 1040 ------- 14 0.0 3.0 1 2
- 0.271024 1 2 tcp 1040 ------- 14 0.0 3.0 1 2
r 0.271856 0 1 tcp 1040 ------- 14 0.0 3.0 2 3
+ 0.271856 1 2 tcp 1040 ------- 14 0.0 3.0 2 3
- 0.271856 1 2 tcp 1040 ------- 14 0.0 3.0 2 3
r 0.281856 1 2 tcp 1040 ------- 14 0.0 3.0 1 2
+ 0.281856 2 3 tcp 1040 ------- 14 0.0 3.0 1 2
- 0.281856 2 3 tcp 1040 ------- 14 0.0 3.0 1 2
r 0.282688 1 2 tcp 1040 ------- 14 0.0 3.0 2 3
+ 0.282688 2 3 tcp 1040 ------- 14 0.0 3.0 2 3
- 0.282688 2 3 tcp 1040 ------- 14 0.0 3.0 2 3
r 0.292688 2 3 tcp 1040 ------- 14 0.0 3.0 1 2
+ 0.292688 3 2 ack 40 ------- 14 3.0 0.0 1 4
- 0.292688 3 2 ack 40 ------- 14 3.0 0.0 1 4
r 0.29352 2 3 tcp 1040 ------- 14 0.0 3.0 2 3
+ 0.29352 3 2 ack 40 ------- 14 3.0 0.0 2 5
- 0.29352 3 2 ack 40 ------- 14 3.0 0.0 2 5
r 0.30272 3 2 ack 40 ------- 14 3.0 0.0 1 4
+ 0.30272 2 1 ack 40 ------- 14 3.0 0.0 1 4
- 0.30272 2 1 ack 40 ------- 14 3.0 0.0 1 4
r 0.303552 3 2 ack 40 ------- 14 3.0 0.0 2 5
+ 0.303552 2 1 ack 40 ------- 14 3.0 0.0 2 5
- 0.303552 2 1 ack 40 ------- 14 3.0 0.0 2 5
r 0.312752 2 1 ack 40 ------- 14 3.0 0.0 1 4
+ 0.312752 1 0 ack 40 ------- 14 3.0 0.0 1 4
- 0.312752 1 0 ack 40 ------- 14 3.0 0.0 1 4
r 0.313584 2 1 ack 40 ------- 14 3.0 0.0 2 5
+ 0.313584 1 0 ack 40 ------- 14 3.0 0.0 2 5
- 0.313584 1 0 ack 40 ------- 14 3.0 0.0 2 5
r 0.322784 1 0 ack 40 ------- 14 3.0 0.0 1 4
+ 0.322784 0 1 tcp 1040 ------- 14 0.0 3.0 3 6
- 0.322784 0 1 tcp 1040 ------- 14 0.0 3.0 3 6
+ 0.322784 0 1 tcp 1040 ------- 14 0.0 3.0 4 7
r 0.323616 1 0 ack 40 ------- 14 3.0 0.0 2 5
+ 0.323616 0 1 tcp 1040 ------- 14 0.0 3.0 5 8
+ 0.323616 0 1 tcp 1040 ------- 14 0.0 3.0 6 9
- 0.323616 0 1 tcp 1040 ------- 14 0.0 3.0 4 7
- 0.324448 0 1 tcp 1040 ------- 14 0.0 3.0 5 8
- 0.32528 0 1 tcp 1040 ------- 14 0.0 3.0 6 9
r 0.333616 0 1 tcp 1040 ------- 14 0.0 3.0 3 6
+ 0.333616 1 2 tcp 1040 ------- 14 0.0 3.0 3 6
- 0.333616 1 2 tcp 1040 ------- 14 0.0 3.0 3 6
r 0.334448 0 1 tcp 1040 ------- 14 0.0 3.0 4 7
+ 0.334448 1 2 tcp 1040 ------- 14 0.0 3.0 4 7
- 0.334448 1 2 tcp 1040 ------- 14 0.0 3.0 4 7
r 0.33528 0 1 tcp 1040 ------- 14 0.0 3.0 5 8
+ 0.33528 1 2 tcp 1040 ------- 14 0.0 3.0 5 8
- 0.33528 1 2 tcp 1040 ------- 14 0.0 3.0 5 8
r 0.336112 0 1 tcp 1040 ------- 14 0.0 3.0 6 9
+ 0.336112 1 2 tcp 1040 ------- 14 0.0 3.0 6 9
- 0.336112 1 2 tcp 1040 ------- 14 0.0 3.0 6 9
r 0.344448 1 2 tcp 1040 ------- 14 0.0 3.0 3 6
+ 0.344448 2 3 tcp 1040 ------- 14 0.0 3.0 3 6
- 0.344448 2 3 tcp 1040 ------- 14 0.0 3.0 3 6
r 0.34528 1 2 tcp 1040 ------- 14 0.0 3.0 4 7
+ 0.34528 2 3 tcp 1040 ------- 14 0.0 3.0 4 7
- 0.34528 2 3 tcp 1040 ------- 14 0.0 3.0 4 7
r 0.346112 1 2 tcp 1040 ------- 14 0.0 3.0 5 8
+ 0.346112 2 3 tcp 1040 ------- 14 0.0 3.0 5 8
- 0.346112 2 3 tcp 1040 ------- 14 0.0 3.0 5 8
r 0.346944 1 2 tcp 1040 ------- 14 0.0 3.0 6 9
+ 0.346944 2 3 tcp 1040 ------- 14 0.0 3.0 6 9
- 0.346944 2 3 tcp 1040 ------- 14 0.0 3.0 6 9
r 0.35528 2 3 tcp 1040 ------- 14 0.0 3.0 3 6
+ 0.35528 3 2 ack 40 ------- 14 3.0 0.0 3 10
- 0.35528 3 2 ack 40 ------- 14 3.0 0.0 3 10
r 0.356112 2 3 tcp 1040 ------- 14 0.0 3.0 4 7
+ 0.356112 3 2 ack 40 ------- 14 3.0 0.0 4 11
- 0.356112 3 2 ack 40 ------- 14 3.0 0.0 4 11
r 0.356944 2 3 tcp 1040 ------- 14 0.0 3.0 5 8
+ 0.356944 3 2 ack 40 ------- 14 3.0 0.0 5 12
- 0.356944 3 2 ack 40 ------- 14 3.0 0.0 5 12
r 0.357776 2 3 tcp 1040 ------- 14 0.0 3.0 6 9
+ 0.357776 3 2 ack 40 ------- 14 3.0 0.0 6 13
- 0.357776 3 2 ack 40 ------- 14 3.0 0.0 6 13
r 0.365312 3 2 ack 40 ------- 14 3.0 0.0 3 10
+ 0.365312 2 1 ack 40 ------- 14 3.0 0.0 3 10
- 0.365312 2 1 ack 40 ------- 14 3.0 0.0 3 10
r 0.366144 3 2 ack 40 ------- 14 3.0 0.0 4 11
+ 0.366144 2 1 ack 40 ------- 14 3.0 0.0 4 11
- 0.366144 2 1 ack 40 ------- 14 3.0 0.0 4 11
r 0.366976 3 2 ack 40 ------- 14 3.0 0.0 5 12
+ 0.366976 2 1 ack 40 ------- 14 3.0 0.0 5 12
- 0.366976 2 1 ack 40 ------- 14 3.0 0.0 5 12
r 0.367808 3 2 ack 40 ------- 14 3.0 0.0 6 13
+ 0.367808 2 1 ack 40 ------- 14 3.0 0.0 6 13
- 0.367808 2 1 ack 40 ------- 14 3.0 0.0 6 13
r 0.375344 2 1 ack 40 ------- 14 3.0 0.0 3 10
+ 0.375344 1 0 ack 40 ------- 14 3.0 0.0 3 10
- 0.375344 1 0 ack 40 ------- 14 3.0 0.0 3 10
r 0.376176 2 1 ack 40 ------- 14 3.0 0.0 4 11
+ 0.376176 1 0 ack 40 ------- 14 3.0 0.0 4 11
- 0.376176 1 0 ack 40 ------- 14 3.0 0.0 4 11
r 0.377008 2 1 ack 40 ------- 14 3.0 0.0 5 12
+ 0.377008 1 0 ack 40 ------- 14 3.0 0.0 5 12
- 0.377008 1 0 ack 40 ------- 14 3.0 0.0 5 12
r 0.37784 2 1 ack 40 ------- 14 3.0 0.0 6 13
+ 0.37784 1 0 ack 40 ------- 14 3.0 0.0 6 13
- 0.37784 1 0 ack 40 ------- 14 3.0 0.0 6 13
r 0.385376 1 0 ack 40 ------- 14 3.0 0.0 3 10
+ 0.385376 0 1 tcp 1040 ------- 14 0.0 3.0 7 14
- 0.385376 0 1 tcp 1040 ------- 14 0.0 3.0 7 14
+ 0.385376 0 1 tcp 1040 ------- 14 0.0 3.0 8 15
r 0.386208 1 0 ack 40 ------- 14 3.0 0.0 4 11
+ 0.386208 0 1 tcp 1040 ------- 14 0.0 3.0 9 16
+ 0.386208 0 1 tcp 1040 ------- 14 0.0 3.0 10 17
- 0.386208 0 1 tcp 1040 ------- 14 0.0 3.0 8 15
r 0.38704 1 0 ack 40 ------- 14 3.0 0.0 5 12
+ 0.38704 0 1 tcp 1040 ------- 14 0.0 3.0 11 18
+ 0.38704 0 1 tcp 1040 ------- 14 0.0 3.0 12 19
- 0.38704 0 1 tcp 1040 ------- 14 0.0 3.0 9 16
r 0.387872 1 0 ack 40 ------- 14 3.0 0.0 6 13
+ 0.387872 0 1 tcp 1040 ------- 14 0.0 3.0 13 20
+ 0.387872 0 1 tcp 1040 ------- 14 0.0 3.0 14 21
- 0.387872 0 1 tcp 1040 ------- 14 0.0 3.0 10 17
- 0.388704 0 1 tcp 1040 ------- 14 0.0 3.0 11 18
- 0.389536 0 1 tcp 1040 ------- 14 0.0 3.0 12 19
- 0.390368 0 1 tcp 1040 ------- 14 0.0 3.0 13 20
- 0.3912 0 1 tcp 1040 ------- 14 0.0 3.0 14 21
r 0.396208 0 1 tcp 1040 ------- 14 0.0 3.0 7 14
+ 0.396208 1 2 tcp 1040 ------- 14 0.0 3.0 7 14
- 0.396208 1 2 tcp 1040 ------- 14 0.0 3.0 7 14
r 0.39704 0 1 tcp 1040 ------- 14 0.0 3.0 8 15
+ 0.39704 1 2 tcp 1040 ------- 14 0.0 3.0 8 15
- 0.39704 1 2 tcp 1040 ------- 14 0.0 3.0 8 15
r 0.397872 0 1 tcp 1040 ------- 14 0.0 3.0 9 16
+ 0.397872 1 2 tcp 1040 ------- 14 0.0 3.0 9 16
- 0.397872 1 2 tcp 1040 ------- 14 0.0 3.0 9 16
r 0.398704 0 1 tcp 1040 ------- 14 0.0 3.0 10 17
+ 0.398704 1 2 tcp 1040 ------- 14 0.0 3.0 10 17
- 0.398704 1 2 tcp 1040 ------- 14 0.0 3.0 10 17
r 0.399536 0 1 tcp 1040 ------- 14 0.0 3.0 11 18
+ 0.399536 1 2 tcp 1040 ------- 14 0.0 3.0 11 18
- 0.399536 1 2 tcp 1040 ------- 14 0.0 3.0 11 18
+ 0.4 4 1 tcp 40 ------- 56 4.0 5.0 0 22
- 0.4 4 1 tcp 40 ------- 56 4.0 5.0 0 22
r 0.400368 0 1 tcp 1040 ------- 14 0.0 3.0 12 19
+ 0.400368 1 2 tcp 1040 ------- 14 0.0 3.0 12 19
- 0.400368 1 2 tcp 1040 ------- 14 0.0 3.0 12 19
r 0.4012 0 1 tcp 1040 ------- 14 0.0 3.0 13 20
+ 0.4012 1 2 tcp 1040 ------- 14 0.0 3.0 13 20
- 0.4012 1 2 tcp 1040 ------- 14 0.0 3.0 13 20
r 0.402032 0 1 tcp 1040 ------- 14 0.0 3.0 14 21
+ 0.402032 1 2 tcp 1040 ------- 14 0.0 3.0 14 21
- 0.402032 1 2 tcp 1040 ------- 14 0.0 3.0 14 21
r 0.40704 1 2 tcp 1040 ------- 14 0.0 3.0 7 14
+ 0.40704 2 3 tcp 1040 ------- 14 0.0 3.0 7 14
- 0.40704 2 3 tcp 1040 ------- 14 0.0 3.0 7 14
r 0.407872 1 2 tcp 1040 ------- 14 0.0 3.0 8 15
+ 0.407872 2 3 tcp 1040 ------- 14 0.0 3.0 8 15
- 0.407872 2 3 tcp 1040 ------- 14 0.0 3.0 8 15
r 0.408704 1 2 tcp 1040 ------- 14 0.0 3.0 9 16
+ 0.408704 2 3 tcp 1040 ------- 14 0.0 3.0 9 16
- 0.408704 2 3 tcp 1040 ------- 14 0.0 3.0 9 16
r 0.409536 1 2 tcp 1040 ------- 14 0.0 3.0 10 17
+ 0.409536 2 3 tcp 1040 ------- 14 0.0 3.0 10 17
- 0.409536 2 3 tcp 1040 ------- 14 0.0 3.0 10 17
r 0.410032 4 1 tcp 40 ------- 56 4.0 5.0 0 22
+ 0.410032 1 2 tcp 40 ------- 56 4.0 5.0 0 22
- 0.410032 1 2 tcp 40 ------- 56 4.0 5.0 0 22
r 0.410368 1 2 tcp 1040 ------- 14 0.0 3.0 11 18
+ 0.410368 2 3 tcp 1040 ------- 14 0.0 3.0 11 18
- 0.410368 2 3 tcp 1040 ------- 14 0.0 3.0 11 18
r 0.4112 1 2 tcp 1040 ------- 14 0.0 3.0 12 19
+ 0.4112 2 3 tcp 1040 ------- 14 0.0 3.0 12 19
- 0.4112 2 3 tcp 1040 ------- 14 0.0 3.0 12 19
r 0.412032 1 2 tcp 1040 ------- 14 0.0 3.0 13 20
+ 0.412032 2 3 tcp 1040 ------- 14 0.0 3.0 13 20
- 0.412032 2 3 tcp 1040 ------- 14 0.0 3.0 13 20
r 0.412864 1 2 tcp 1040 ------- 14 0.0 3.0 14 21
+ 0.412864 2 3 tcp 1040 ------- 14 0.0 3.0 14 21
- 0.412864 2 3 tcp 1040 ------- 14 0.0 3.0 14 21
r 0.417872 2 3 tcp 1040 ------- 14 0.0 3.0 7 14
+ 0.417872 3 2 ack 40 ------- 14 3.0 0.0 7 23
- 0.417872 3 2 ack 40 ------- 14 3.0 0.0 7 23
r 0.418704 2 3 tcp 1040 ------- 14 0.0 3.0 8 15
+ 0.418704 3 2 ack 40 ------- 14 3.0 0.0 8 24
- 0.418704 3 2 ack 40 ------- 14 3.0 0.0 8 24
r 0.419536 2 3 tcp 1040 ------- 14 0.0 3.0 9 16
+ 0.419536 3 2 ack 40 ------- 14 3.0 0.0 9 25
- 0.419536 3 2 ack 40 ------- 14 3.0 0.0 9 25
r 0.420064 1 2 tcp 40 ------- 56 4.0 5.0 0 22
+ 0.420064 2 5 tcp 40 ------- 56 4.0 5.0 0 22
- 0.420064 2 5 tcp 40 ------- 56 4.0 5.0 0 22
r 0.420368 2 3 tcp 1040 ------- 14 0.0 3.0 10 17
+ 0.420368 3 2 ack 40 ------- 14 3.0 0.0 10 26
- 0.420368 3 2 ack 40 ------- 14 3.0 0.0 10 26
r 0.4212 2 3 tcp 1040 ------- 14 0.0 3.0 11 18
+ 0.4212 3 2 ack 40 ------- 14 3.0 0.0 11 27
- 0.4212 3 2 ack 40 ------- 14 3.0 0.0 11 27
r 0.422032 2 3 tcp 1040 ------- 14 0.0 3.0 12 19
+ 0.422032 3 2 ack 40 ------- 14 3.0 0.0 12 28
- 0.422032 3 2 ack 40 ------- 14 3.0 0.0 12 28
r 0.422864 2 3 tcp 1040 ------- 14 0.0 3.0 13 20
+ 0.422864 3 2 ack 40 ------- 14 3.0 0.0 13 29
- 0.422864 3 2 ack 40 ------- 14 3.0 0.0 13 29
r 0.423696 2 3 tcp 1040 ------- 14 0.0 3.0 14 21
+ 0.423696 3 2 ack 40 ------- 14 3.0 0.0 14 30
- 0.423696 3 2 ack 40 ------- 14 3.0 0.0 14 30
r 0.427904 3 2 ack 40 ------- 14 3.0 0.0 7 23
+ 0.427904 2 1 ack 40 ------- 14 3.0 0.0 7 23
- 0.427904 2 1 ack 40 ------- 14 3.0 0.0 7 23
r 0.428736 3 2 ack 40 ------- 14 3.0 0.0 8 24
+ 0.428736 2 1 ack 40 ------- 14 3.0 0.0 8 24
- 0.428736 2 1 ack 40 ------- 14 3.0 0.0 8 24
r 0.429568 3 2 ack 40 ------- 14 3.0 0.0 9 25
+ 0.429568 2 1 ack 40 ------- 14 3.0 0.0 9 25
- 0.429568 2 1 ack 40 ------- 14 3.0 0.0 9 25
r 0.430096 2 5 tcp 40 ------- 56 4.0 5.0 0 22
+ 0.430096 5 2 ack 40 ------- 56 5.0 4.0 0 31
- 0.430096 5 2 ack 40 ------- 56 5.0 4.0 0 31
r 0.4304 3 2 ack 40 ------- 14 3.0 0.0 10 26
+ 0.4304 2 1 ack 40 ------- 14 3.0 0.0 10 26
- 0.4304 2 1 ack 40 ------- 14 3.0 0.0 10 26
r 0.431232 3 2 ack 40 ------- 14 3.0 0.0 11 27
+ 0.431232 2 1 ack 40 ------- 14 3.0 0.0 11 27
- 0.431232 2 1 ack 40 ------- 14 3.0 0.0 11 27
r 0.432064 3 2 ack 40 ------- 14 3.0 0.0 12 28
+ 0.432064 2 1 ack 40 ------- 14 3.0 0.0 12 28
- 0.432064 2 1 ack 40 ------- 14 3.0 0.0 12 28
r 0.432896 3 2 ack 40 ------- 14 3.0 0.0 13 29
+ 0.432896 2 1 ack 40 ------- 14 3.0 0.0 13 29
- 0.432896 2 1 ack 40 ------- 14 3.0 0.0 13 29
r 0.433728 3 2 ack 40 ------- 14 3.0 0.0 14 30
+ 0.433728 2 1 ack 40 ------- 14 3.0 0.0 14 30
- 0.433728 2 1 ack 40 ------- 14 3.0 0.0 14 30
r 0.437936 2 1 ack 40 ------- 14 3.0 0.0 7 23
+ 0.437936 1 0 ack 40 ------- 14 3.0 0.0 7 23
- 0.437936 1 0 ack 40 ------- 14 3.0 0.0 7 23
r 0.438768 2 1 ack 40 ------- 14 3.0 0.0 8 24
+ 0.438768 1 0 ack 40 ------- 14 3.0 0.0 8 24
- 0.438768 1 0 ack 40 ------- 14 3.0 0.0 8 24
r 0.4396 2 1 ack 40 ------- 14 3.0 0.0 9 25
+ 0.4396 1 0 ack 40 ------- 14 3.0 0.0 9 25
- 0.4396 1 0 ack 40 ------- 14 3.0 0.0 9 25
r 0.440128 5 2 ack 40 ------- 56 5.0 4.0 0 31
+ 0.440128 2 1 ack 40 ------- 56 5.0 4.0 0 31
- 0.440128 2 1 ack 40 ------- 56 5.0 4.0 0 31
r 0.440432 2 1 ack 40 ------- 14 3.0 0.0 10 26
+ 0.440432 1 0 ack 40 ------- 14 3.0 0.0 10 26
- 0.440432 1 0 ack 40 ------- 14 3.0 0.0 10 26
r 0.441264 2 1 ack 40 ------- 14 3.0 0.0 11 27
+ 0.441264 1 0 ack 40 ------- 14 3.0 0.0 11 27
- 0.441264 1 0 ack 40 ------- 14 3.0 0.0 11 27
r 0.442096 2 1 ack 40 ------- 14 3.0 0.0 12 28
+ 0.442096 1 0 ack 40 ------- 14 3.0 0.0 12 28
- 0.442096 1 0 ack 40 ------- 14 3.0 0.0 12 28
r 0.442928 2 1 ack 40 ------- 14 3.0 0.0 13 29
+ 0.442928 1 0 ack 40 ------- 14 3.0 0.0 13 29
- 0.442928 1 0 ack 40 ------- 14 3.0 0.0 13 29
r 0.44376 2 1 ack 40 ------- 14 3.0 0.0 14 30
+ 0.44376 1 0 ack 40 ------- 14 3.0 0.0 14 30
- 0.44376 1 0 ack 40 ------- 14 3.0 0.0 14 30
r 0.447968 1 0 ack 40 ------- 14 3.0 0.0 7 23
+ 0.447968 0 1 tcp 1040 ------- 14 0.0 3.0 15 32
- 0.447968 0 1 tcp 1040 ------- 14 0.0 3.0 15 32
+ 0.447968 0 1 tcp 1040 ------- 14 0.0 3.0 16 33
r 0.4488 1 0 ack 40 ------- 14 3.0 0.0 8 24
+ 0.4488 0 1 tcp 1040 ------- 14 0.0 3.0 17 34
+ 0.4488 0 1 tcp 1040 ------- 14 0.0 3.0 18 35
- 0.4488 0 1 tcp 1040 ------- 14 0.0 3.0 16 33
r 0.449632 1 0 ack 40 ------- 14 3.0 0.0 9 25
+ 0.449632 0 1 tcp 1040 ------- 14 0.0 3.0 19 36
+ 0.449632 0 1 tcp 1040 ------- 14 0.0 3.0 20 37
- 0.449632 0 1 tcp 1040 ------- 14 0.0 3.0 17 34
r 0.45016 2 1 ack 40 ------- 56 5.0 4.0 0 31
+ 0.45016 1 4 ack 40 ------- 56 5.0 4.0 0 31
- 0.45016 1 4 ack 40 ------- 56 5.0 4.0 0 31
r 0.450464 1 0 ack 40 ------- 14 3.0 0.0 10 26
+ 0.450464 0 1 tcp 1040 ------- 14 0.0 3.0 21 38
+ 0.450464 0 1 tcp 1040 ------- 14 0.0 3.0 22 39
- 0.450464 0 1 tcp 1040 ------- 14 0.0 3.0 18 35
r 0.451296 1 0 ack 40 ------- 14 3.0 0.0 11 27
+ 0.451296 0 1 tcp 1040 ------- 14 0.0 3.0 23 40
+ 0.451296 0 1 tcp 1040 ------- 14 0.0 3.0 24 41
- 0.451296 0 1 tcp 1040 ------- 14 0.0 3.0 19 36
r 0.452128 1 0 ack 40 ------- 14 3.0 0.0 12 28
+ 0.452128 0 1 tcp 1040 ------- 14 0.0 3.0 25 42
+ 0.452128 0 1 tcp 1040 ------- 14 0.0 3.0 26 43
- 0.452128 0 1 tcp 1040 ------- 14 0.0 3.0 20 37
r 0.45296 1 0 ack 40 ------- 14 3.0 0.0 13 29
+ 0.45296 0 1 tcp 1040 ------- 14 0.0 3.0 27 44
+ 0.45296 0 1 tcp 1040 ------- 14 0.0 3.0 28 45
- 0.45296 0 1 tcp 1040 ------- 14 0.0 3.0 21 38
r 0.453792 1 0 ack 40 ------- 14 3.0 0.0 14 30
+ 0.453792 0 1 tcp 1040 ------- 14 0.0 3.0 29 46
+ 0.453792 0 1 tcp 1040 ------- 14 0.0 3.0 30 47
- 0.453792 0 1 tcp 1040 ------- 14 0.0 3.0 22 39
- 0.454624 0 1 tcp 1040 ------- 14 0.0 3.0 23 40
- 0.455456 0 1 tcp 1040 ------- 14 0.0 3.0 24 41
- 0.456288 0 1 tcp 1040 ------- 14 0.0 3.0 25 42
- 0.45712 0 1 tcp 1040 ------- 14 0.0 3.0 26 43
- 0.457952 0 1 tcp 1040 ------- 14 0.0 3.0 27 44
- 0.458784 0 1 tcp 1040 ------- 14 0.0 3.0 28 45
r 0.4588 0 1 tcp 1040 ------- 14 0.0 3.0 15 32
+ 0.4588 1 2 tcp 1040 ------- 14 0.0 3.0 15 32
- 0.4588 1 2 tcp 1040 ------- 14 0.0 3.0 15 32
- 0.459616 0 1 tcp 1040 ------- 14 0.0 3.0 29 46
r 0.459632 0 1 tcp 1040 ------- 14 0.0 3.0 16 33
+ 0.459632 1 2 tcp 1040 ------- 14 0.0 3.0 16 33
- 0.459632 1 2 tcp 1040 ------- 14 0.0 3.0 16 33
r 0.460192 1 4 ack 40 ------- 56 5.0 4.0 0 31
+ 0.460192 4 1 tcp 1040 ------- 56 4.0 5.0 1 48
- 0.460192 4 1 tcp 1040 ------- 56 4.0 5.0 1 48
+ 0.460192 4 1 tcp 1040 ------- 56 4.0 5.0 2 49
- 0.460448 0 1 tcp 1040 ------- 14 0.0 3.0 30 47
r 0.460464 0 1 tcp 1040 ------- 14 0.0 3.0 17 34
+ 0.460464 1 2 tcp 1040 ------- 14 0.0 3.0 17 34
- 0.460464 1 2 tcp 1040 ------- 14 0.0 3.0 17 34
- 0.461024 4 1 tcp 1040 ------- 56 4.0 5.0 2 49
r 0.461296 0 1 tcp 1040 ------- 14 0.0 3.0 18 35
+ 0.461296 1 2 tcp 1040 ------- 14 0.0 3.0 18 35
- 0.461296 1 2 tcp 1040 ------- 14 0.0 3.0 18 35
r 0.462128 0 1 tcp 1040 ------- 14 0.0 3.0 19 36
+ 0.462128 1 2 tcp 1040 ------- 14 0.0 3.0 19 36
- 0.462128 1 2 tcp 1040 ------- 14 0.0 3.0 19 36
r 0.46296 0 1 tcp 1040 ------- 14 0.0 3.0 20 37
+ 0.46296 1 2 tcp 1040 ------- 14 0.0 3.0 20 37
- 0.46296 1 2 tcp 1040 ------- 14 0.0 3.0 20 37
r 0.463792 0 1 tcp 1040 ------- 14 0.0 3.0 21 38
+ 0.463792 1 2 tcp 1040 ------- 14 0.0 3.0 21 38
- 0.463792 1 2 tcp 1040 ------- 14 0.0 3.0 21 38
r 0.464624 0 1 tcp 1040 ------- 14 0.0 3.0 22 39
+ 0.464624 1 2 tcp 1040 ------- 14 0.0 3.0 22 39
- 0.464624 1 2 tcp 1040 ------- 14 0.0 3.0 22 39
r 0.465456 0 1 tcp 1040 ------- 14 0.0 3.0 23 40
+ 0.465456 1 2 tcp 1040 ------- 14 0.0 3.0 23 40
- 0.465456 1 2 tcp 1040 ------- 14 0.0 3.0 23 40
r 0.466288 0 1 tcp 1040 ------- 14 0.0 3.0 24 41
+ 0.466288 1 2 tcp 1040 ------- 14 0.0 3.0 24 41
- 0.466288 1 2 tcp 1040 ------- 14 0.0 3.0 24 41
r 0.46712 0 1 tcp 1040 ------- 14 0.0 3.0 25 42
+ 0.46712 1 2 tcp 1040 ------- 14 0.0 3.0 25 42
- 0.46712 1 2 tcp 1040 ------- 14 0.0 3.0 25 42
r 0.467952 0 1 tcp 1040 ------- 14 0.0 3.0 26 43
+ 0.467952 1 2 tcp 1040 ------- 14 0.0 3.0 26 43
- 0.467952 1 2 tcp 1040 ------- 14 0.0 3.0 26 43
r 0.468784 0 1 tcp 1040 ------- 14 0.0 3.0 27 44
+ 0.468784 1 2 tcp 1040 ------- 14 0.0 3.0 27 44
- 0.468784 1 2 tcp 1040 ------- 14 0.0 3.0 27 44
r 0.469616 0 1 tcp 1040 ------- 14 0.0 3.0 28 45
+ 0.469616 1 2 tcp 1040 ------- 14 0.0 3.0 28 45
- 0.469616 1 2 tcp 1040 ------- 14 0.0 3.0 28 45
r 0.469632 1 2 tcp 1040 ------- 14 0.0 3.0 15 32
+ 0.469632 2 3 tcp 1040 ------- 14 0.0 3.0 15 32
- 0.469632 2 3 tcp 1040 ------- 14 0.0 3.0 15 32
r 0.470448 0 1 tcp 1040 ------- 14 0.0 3.0 29 46
+ 0.470448 1 2 tcp 1040 ------- 14 0.0 3.0 29 46
- 0.470448 1 2 tcp 1040 ------- 14 0.0 3.0 29 46
r 0.470464 1 2 tcp 1040 ------- 14 0.0 3.0 16 33
+ 0.470464 2 3 tcp 1040 ------- 14 0.0 3.0 16 33
- 0.470464 2 3 tcp 1040 ------- 14 0.0 3.0 16 33
r 0.471024 4 1 tcp 1040 ------- 56 4.0 5.0 1 48
+ 0.471024 1 2 tcp 1040 ------- 56 4.0 5.0 1 48
r 0.47128 0 1 tcp 1040 ------- 14 0.0 3.0 30 47
+ 0.47128 1 2 tcp 1040 ------- 14 0.0 3.0 30 47
- 0.47128 1 2 tcp 1040 ------- 56 4.0 5.0 1 48
r 0.471296 1 2 tcp 1040 ------- 14 0.0 3.0 17 34
+ 0.471296 2 3 tcp 1040 ------- 14 0.0 3.0 17 34
- 0.471296 2 3 tcp 1040 ------- 14 0.0 3.0 17 34
r 0.471856 4 1 tcp 1040 ------- 56 4.0 5.0 2 49
+ 0.471856 1 2 tcp 1040 ------- 56 4.0 5.0 2 49
- 0.472112 1 2 tcp 1040 ------- 14 0.0 3.0 30 47
r 0.472128 1 2 tcp 1040 ------- 14 0.0 3.0 18 35
+ 0.472128 2 3 tcp 1040 ------- 14 0.0 3.0 18 35
- 0.472128 2 3 tcp 1040 ------- 14 0.0 3.0 18 35
- 0.472944 1 2 tcp 1040 ------- 56 4.0 5.0 2 49
r 0.47296 1 2 tcp 1040 ------- 14 0.0 3.0 19 36
+ 0.47296 2 3 tcp 1040 ------- 14 0.0 3.0 19 36
- 0.47296 2 3 tcp 1040 ------- 14 0.0 3.0 19 36
r 0.473792 1 2 tcp 1040 ------- 14 0.0 3.0 20 37
+ 0.473792 2 3 tcp 1040 ------- 14 0.0 3.0 20 37
- 0.473792 2 3 tcp 1040 ------- 14 0.0 3.0 20 37
r 0.474624 1 2 tcp 1040 ------- 14 0.0 3.0 21 38
+ 0.474624 2 3 tcp 1040 ------- 14 0.0 3.0 21 38
- 0.474624 2 3 tcp 1040 ------- 14 0.0 3.0 21 38
r 0.475456 1 2 tcp 1040 ------- 14 0.0 3.0 22 39
+ 0.475456 2 3 tcp 1040 ------- 14 0.0 3.0 22 39
- 0.475456 2 3 tcp 1040 ------- 14 0.0 3.0 22 39
r 0.476288 1 2 tcp 1040 ------- 14 0.0 3.0 23 40
+ 0.476288 2 3 tcp 1040 ------- 14 0.0 3.0 23 40
- 0.476288 2 3 tcp 1040 ------- 14 0.0 3.0 23 40
r 0.47712 1 2 tcp 1040 ------- 14 0.0 3.0 24 41
+ 0.47712 2 3 tcp 1040 ------- 14 0.0 3.0 24 41
- 0.47712 2 3 tcp 1040 ------- 14 0.0 3.0 24 41
r 0.477952 1 2 tcp 1040 ------- 14 0.0 3.0 25 42
+ 0.477952 2 3 tcp 1040 ------- 14 0.0 3.0 25 42
- 0.477952 2 3 tcp 1040 ------- 14 0.0 3.0 25 42
r 0.478784 1 2 tcp 1040 ------- 14 0.0 3.0 26 43
+ 0.478784 2 3 tcp 1040 ------- 14 0.0 3.0 26 43
- 0.478784 2 3 tcp 1040 ------- 14 0.0 3.0 26 43
r 0.479616 1 2 tcp 1040 ------- 14 0.0 3.0 27 44
+ 0.479616 2 3 tcp 1040 ------- 14 0.0 3.0 27 44
- 0.479616 2 3 tcp 1040 ------- 14 0.0 3.0 27 44
r 0.480448 1 2 tcp 1040 ------- 14 0.0 3.0 28 45
+ 0.480448 2 3 tcp 1040 ------- 14 0.0 3.0 28 45
- 0.480448 2 3 tcp 1040 ------- 14 0.0 3.0 28 45
r 0.480464 2 3 tcp 1040 ------- 14 0.0 3.0 15 32
+ 0.480464 3 2 ack 40 ------- 14 3.0 0.0 15 50
- 0.480464 3 2 ack 40 ------- 14 3.0 0.0 15 50
r 0.48128 1 2 tcp 1040 ------- 14 0.0 3.0 29 46
+ 0.48128 2 3 tcp 1040 ------- 14 0.0 3.0 29 46
- 0.48128 2 3 tcp 1040 ------- 14 0.0 3.0 29 46
r 0.481296 2 3 tcp 1040 ------- 14 0.0 3.0 16 33
+ 0.481296 3 2 ack 40 ------- 14 3.0 0.0 16 51
- 0.481296 3 2 ack 40 ------- 14 3.0 0.0 16 51
r 0.482112 1 2 tcp 1040 ------- 56 4.0 5.0 1 48
+ 0.482112 2 5 tcp 1040 ------- 56 4.0 5.0 1 48
- 0.482112 2 5 tcp 1040 ------- 56 4.0 5.0 1 48
r 0.482128 2 3 tcp 1040 ------- 14 0.0 3.0 17 34
+ 0.482128 3 2 ack 40 ------- 14 3.0 0.0 17 52
- 0.482128 3 2 ack 40 ------- 14 3.0 0.0 17 52
r 0.482944 1 2 tcp 1040 ------- 14 0.0 3.0 30 47
+ 0.482944 2 3 tcp 1040 ------- 14 0.0 3.0 30 47
- 0.482944 2 3 tcp 1040 ------- 14 0.0 3.0 30 47
r 0.48296 2 3 tcp 1040 ------- 14 0.0 3.0 18 35
+ 0.48296 3 2 ack 40 ------- 14 3.0 0.0 18 53
- 0.48296 3 2 ack 40 ------- 14 3.0 0.0 18 53
r 0.483776 1 2 tcp 1040 ------- 56 4.0 5.0 2 49
+ 0.483776 2 5 tcp 1040 ------- 56 4.0 5.0 2 49
- 0.483776 2 5 tcp 1040 ------- 56 4.0 5.0 2 49
r 0.483792 2 3 tcp 1040 ------- 14 0.0 3.0 19 36
+ 0.483792 3 2 ack 40 ------- 14 3.0 0.0 19 54
- 0.483792 3 2 ack 40 ------- 14 3.0 0.0 19 54
r 0.484624 2 3 tcp 1040 ------- 14 0.0 3.0 20 37
+ 0.484624 3 2 ack 40 ------- 14 3.0 0.0 20 55
- 0.484624 3 2 ack 40 ------- 14 3.0 0.0 20 55
r 0.485456 2 3 tcp 1040 ------- 14 0.0 3.0 21 38
+ 0.485456 3 2 ack 40 ------- 14 3.0 0.0 21 56
- 0.485456 3 2 ack 40 ------- 14 3.0 0.0 21 56
r 0.486288 2 3 tcp 1040 ------- 14 0.0 3.0 22 39
+ 0.486288 3 2 ack 40 ------- 14 3.0 0.0 22 57
- 0.486288 3 2 ack 40 ------- 14 3.0 0.0 22 57
r 0.48712 2 3 tcp 1040 ------- 14 0.0 3.0 23 40
+ 0.48712 3 2 ack 40 ------- 14 3.0 0.0 23 58
- 0.48712 3 2 ack 40 ------- 14 3.0 0.0 23 58
r 0.487952 2 3 tcp 1040 ------- 14 0.0 3.0 24 41
+ 0.487952 3 2 ack 40 ------- 14 3.0 0.0 24 59
- 0.487952 3 2 ack 40 ------- 14 3.0 0.0 24 59
r 0.488784 2 3 tcp 1040 ------- 14 0.0 3.0 25 42
+ 0.488784 3 2 ack 40 ------- 14 3.0 0.0 25 60
- 0.488784 3 2 ack 40 ------- 14 3.0 0.0 25 60
r 0.489616 2 3 tcp 1040 ------- 14 0.0 3.0 26 43
+ 0.489616 3 2 ack 40 ------- 14 3.0 0.0 26 61
- 0.489616 3 2 ack 40 ------- 14 3.0 0.0 26 61
r 0.490448 2 3 tcp 1040 ------- 14 0.0 3.0 27 44
+ 0.490448 3 2 ack 40 ------- 14 3.0 0.0 27 62
- 0.490448 3 2 ack 40 ------- 14 3.0 0.0 27 62
r 0.490496 3 2 ack 40 ------- 14 3.0 0.0 15 50
+ 0.490496 2 1 ack 40 ------- 14 3.0 0.0 15 50
- 0.490496 2 1 ack 40 ------- 14 3.0 0.0 15 50
r 0.49128 2 3 tcp 1040 ------- 14 0.0 3.0 28 45
+ 0.49128 3 2 ack 40 ------- 14 3.0 0.0 28 63
- 0.49128 3 2 ack 40 ------- 14 3.0 0.0 28 63
r 0.491328 3 2 ack 40 ------- 14 3.0 0.0 16 51
+ 0.491328 2 1 ack 40 ------- 14 3.0 0.0 16 51
- 0.491328 2 1 ack 40 ------- 14 3.0 0.0 16 51
r 0.492112 2 3 tcp 1040 ------- 14 0.0 3.0 29 46
+ 0.492112 3 2 ack 40 ------- 14 3.0 0.0 29 64
- 0.492112 3 2 ack 40 ------- 14 3.0 0.0 29 64
r 0.49216 3 2 ack 40 ------- 14 3.0 0.0 17 52
+ 0.49216 2 1 ack 40 ------- 14 3.0 0.0 17 52
- 0.49216 2 1 ack 40 ------- 14 3.0 0.0 17 52
r 0.492944 2 5 tcp 1040 ------- 56 4.0 5.0 1 48
+ 0.492944 5 2 ack 40 ------- 56 5.0 4.0 1 65
- 0.492944 5 2 ack 40 ------- 56 5.0 4.0 1 65
r 0.492992 3 2 ack 40 ------- 14 3.0 0.0 18 53
+ 0.492992 2 1 ack 40 ------- 14 3.0 0.0 18 53
- 0.492992 2 1 ack 40 ------- 14 3.0 0.0 18 53
r 0.493776 2 3 tcp 1040 ------- 14 0.0 3.0 30 47
+ 0.493776 3 2 ack 40 ------- 14 3.0 0.0 30 66
- 0.493776 3 2 ack 40 ------- 14 3.0 0.0 30 66
r 0.493824 3 2 ack 40 ------- 14 3.0 0.0 19 54
+ 0.493824 2 1 ack 40 ------- 14 3.0 0.0 19 54
- 0.493824 2 1 ack 40 ------- 14 3.0 0.0 19 54
r 0.494608 2 5 tcp 1040 ------- 56 4.0 5.0 2 49
+ 0.494608 5 2 ack 40 ------- 56 5.0 4.0 2 67
- 0.494608 5 2 ack 40 ------- 56 5.0 4.0 2 67
r 0.494656 3 2 ack 40 ------- 14 3.0 0.0 20 55
+ 0.494656 2 1 ack 40 ------- 14 3.0 0.0 20 55
- 0.494656 2 1 ack 40 ------- 14 3.0 0.0 20 55
r 0.495488 3 2 ack 40 ------- 14 3.0 0.0 21 56
+ 0.495488 2 1 ack 40 ------- 14 3.0 0.0 21 56
- 0.495488 2 1 ack 40 ------- 14 3.0 0.0 21 56
r 0.49632 3 2 ack 40 ------- 14 3.0 0.0 22 57
+ 0.49632 2 1 ack 40 ------- 14 3.0 0.0 22 57
- 0.49632 2 1 ack 40 ------- 14 3.0 0.0 22 57
r 0.497152 3 2 ack 40 ------- 14 3.0 0.0 23 58
+ 0.497152 2 1 ack 40 ------- 14 3.0 0.0 23 58
- 0.497152 2 1 ack 40 ------- 14 3.0 0.0 23 58
r 0.497984 3 2 ack 40 ------- 14 3.0 0.0 24 59
+ 0.497984 2 1 ack 40 ------- 14 3.0 0.0 24 59
- 0.497984 2 1 ack 40 ------- 14 3.0 0.0 24 59
r 0.498816 3 2 ack 40 ------- 14 3.0 0.0 25 60
+ 0.498816 2 1 ack 40 ------- 14 3.0 0.0 25 60
- 0.498816 2 1 ack 40 ------- 14 3.0 0.0 25 60
r 0.499648 3 2 ack 40 ------- 14 3.0 0.0 26 61
+ 0.499648 2 1 ack 40 ------- 14 3.0 0.0 26 61
- 0.499648 2 1 ack 40 ------- 14 3.0 0.0 26 61
r 0.50048 3 2 ack 40 ------- 14 3.0 0.0 27 62
+ 0.50048 2 1 ack 40 ------- 14 3.0 0.0 27 62
- 0.50048 2 1 ack 40 ------- 14 3.0 0.0 27 62
r 0.500528 2 1 ack 40 ------- 14 3.0 0.0 15 50
+ 0.500528 1 0 ack 40 ------- 14 3.0 0.0 15 50
- 0.500528 1 0 ack 40 ------- 14 3.0 0.0 15 50
r 0.501312 3 2 ack 40 ------- 14 3.0 0.0 28 63
+ 0.501312 2 1 ack 40 ------- 14 3.0 0.0 28 63
- 0.501312 2 1 ack 40 ------- 14 3.0 0.0 28 63
r 0.50136 2 1 ack 40 ------- 14 3.0 0.0 16 51
+ 0.50136 1 0 ack 40 ------- 14 3.0 0.0 16 51
- 0.50136 1 0 ack 40 ------- 14 3.0 0.0 16 51
r 0.502144 3 2 ack 40 ------- 14 3.0 0.0 29 64
+ 0.502144 2 1 ack 40 ------- 14 3.0 0.0 29 64
- 0.502144 2 1 ack 40 ------- 14 3.0 0.0 29 64
r 0.502192 2 1 ack 40 ------- 14 3.0 0.0 17 52
+ 0.502192 1 0 ack 40 ------- 14 3.0 0.0 17 52
- 0.502192 1 0 ack 40 ------- 14 3.0 0.0 17 52
r 0.502976 5 2 ack 40 ------- 56 5.0 4.0 1 65
+ 0.502976 2 1 ack 40 ------- 56 5.0 4.0 1 65
- 0.502976 2 1 ack 40 ------- 56 5.0 4.0 1 65
r 0.503024 2 1 ack 40 ------- 14 3.0 0.0 18 53
+ 0.503024 1 0 ack 40 ------- 14 3.0 0.0 18 53
- 0.503024 1 0 ack 40 ------- 14 3.0 0.0 18 53
r 0.503808 3 2 ack 40 ------- 14 3.0 0.0 30 66
+ 0.503808 2 1 ack 40 ------- 14 3.0 0.0 30 66
- 0.503808 2 1 ack 40 ------- 14 3.0 0.0 30 66
r 0.503856 2 1 ack 40 ------- 14 3.0 0.0 19 54
+ 0.503856 1 0 ack 40 ------- 14 3.0 0.0 19 54
- 0.503856 1 0 ack 40 ------- 14 3.0 0.0 19 54
r 0.50464 5 2 ack 40 ------- 56 5.0 4.0 2 67
+ 0.50464 2 1 ack 40 ------- 56 5.0 4.0 2 67
- 0.50464 2 1 ack 40 ------- 56 5.0 4.0 2 67
r 0.504688 2 1 ack 40 ------- 14 3.0 0.0 20 55
+ 0.504688 1 0 ack 40 ------- 14 3.0 0.0 20 55
- 0.504688 1 0 ack 40 ------- 14 3.0 0.0 20 55
r 0.50552 2 1 ack 40 ------- 14 3.0 0.0 21 56
+ 0.50552 1 0 ack 40 ------- 14 3.0 0.0 21 56
- 0.50552 1 0 ack 40 ------- 14 3.0 0.0 21 56
r 0.506352 2 1 ack 40 ------- 14 3.0 0.0 22 57
+ 0.506352 1 0 ack 40 ------- 14 3.0 0.0 22 57
- 0.506352 1 0 ack 40 ------- 14 3.0 0.0 22 57
r 0.507184 2 1 ack 40 ------- 14 3.0 0.0 23 58
+ 0.507184 1 0 ack 40 ------- 14 3.0 0.0 23 58
- 0.507184 1 0 ack 40 ------- 14 3.0 0.0 23 58
r 0.508016 2 1 ack 40 ------- 14 3.0 0.0 24 59
+ 0.508016 1 0 ack 40 ------- 14 3.0 0.0 24 59
- 0.508016 1 0 ack 40 ------- 14 3.0 0.0 24 59
r 0.508848 2 1 ack 40 ------- 14 3.0 0.0 25 60
+ 0.508848 1 0 ack 40 ------- 14 3.0 0.0 25 60
- 0.508848 1 0 ack 40 ------- 14 3.0 0.0 25 60
r 0.50968 2 1 ack 40 ------- 14 3.0 0.0 26 61
+ 0.50968 1 0 ack 40 ------- 14 3.0 0.0 26 61
- 0.50968 1 0 ack 40 ------- 14 3.0 0.0 26 61
r 0.510512 2 1 ack 40 ------- 14 3.0 0.0 27 62
+ 0.510512 1 0 ack 40 ------- 14 3.0 0.0 27 62
- 0.510512 1 0 ack 40 ------- 14 3.0 0.0 27 62
r 0.51056 1 0 ack 40 ------- 14 3.0 0.0 15 50
+ 0.51056 0 1 tcp 1040 ------- 14 0.0 3.0 31 68
- 0.51056 0 1 tcp 1040 ------- 14 0.0 3.0 31 68
+ 0.51056 0 1 tcp 1040 ------- 14 0.0 3.0 32 69
r 0.511344 2 1 ack 40 ------- 14 3.0 0.0 28 63
+ 0.511344 1 0 ack 40 ------- 14 3.0 0.0 28 63
- 0.511344 1 0 ack 40 ------- 14 3.0 0.0 28 63
r 0.511392 1 0 ack 40 ------- 14 3.0 0.0 16 51
+ 0.511392 0 1 tcp 1040 ------- 14 0.0 3.0 33 70
+ 0.511392 0 1 tcp 1040 ------- 14 0.0 3.0 34 71
- 0.511392 0 1 tcp 1040 ------- 14 0.0 3.0 32 69
r 0.512176 2 1 ack 40 ------- 14 3.0 0.0 29 64
+ 0.512176 1 0 ack 40 ------- 14 3.0 0.0 29 64
- 0.512176 1 0 ack 40 ------- 14 3.0 0.0 29 64
r 0.512224 1 0 ack 40 ------- 14 3.0 0.0 17 52
+ 0.512224 0 1 tcp 1040 ------- 14 0.0 3.0 35 72
+ 0.512224 0 1 tcp 1040 ------- 14 0.0 3.0 36 73
- 0.512224 0 1 tcp 1040 ------- 14 0.0 3.0 33 70
r 0.513008 2 1 ack 40 ------- 56 5.0 4.0 1 65
+ 0.513008 1 4 ack 40 ------- 56 5.0 4.0 1 65
- 0.513008 1 4 ack 40 ------- 56 5.0 4.0 1 65
r 0.513056 1 0 ack 40 ------- 14 3.0 0.0 18 53
+ 0.513056 0 1 tcp 1040 ------- 14 0.0 3.0 37 74
+ 0.513056 0 1 tcp 1040 ------- 14 0.0 3.0 38 75
- 0.513056 0 1 tcp 1040 ------- 14 0.0 3.0 34 71
r 0.51384 2 1 ack 40 ------- 14 3.0 0.0 30 66
+ 0.51384 1 0 ack 40 ------- 14 3.0 0.0 30 66
- 0.51384 1 0 ack 40 ------- 14 3.0 0.0 30 66
r 0.513888 1 0 ack 40 ------- 14 3.0 0.0 19 54
+ 0.513888 0 1 tcp 1040 ------- 14 0.0 3.0 39 76
- 0.513888 0 1 tcp 1040 ------- 14 0.0 3.0 35 72
r 0.514672 2 1 ack 40 ------- 56 5.0 4.0 2 67
+ 0.514672 1 4 ack 40 ------- 56 5.0 4.0 2 67
- 0.514672 1 4 ack 40 ------- 56 5.0 4.0 2 67
r 0.51472 1 0 ack 40 ------- 14 3.0 0.0 20 55
+ 0.51472 0 1 tcp 1040 ------- 14 0.0 3.0 40 77
- 0.51472 0 1 tcp 1040 ------- 14 0.0 3.0 36 73
r 0.515552 1 0 ack 40 ------- 14 3.0 0.0 21 56
+ 0.515552 0 1 tcp 1040 ------- 14 0.0 3.0 41 78
- 0.515552 0 1 tcp 1040 ------- 14 0.0 3.0 37 74
r 0.516384 1 0 ack 40 ------- 14 3.0 0.0 22 57
+ 0.516384 0 1 tcp 1040 ------- 14 0.0 3.0 42 79
- 0.516384 0 1 tcp 1040 ------- 14 0.0 3.0 38 75
r 0.517216 1 0 ack 40 ------- 14 3.0 0.0 23 58
+ 0.517216 0 1 tcp 1040 ------- 14 0.0 3.0 43 80
- 0.517216 0 1 tcp 1040 ------- 14 0.0 3.0 39 76
r 0.518048 1 0 ack 40 ------- 14 3.0 0.0 24 59
+ 0.518048 0 1 tcp 1040 ------- 14 0.0 3.0 44 81
- 0.518048 0 1 tcp 1040 ------- 14 0.0 3.0 40 77
r 0.51888 1 0 ack 40 ------- 14 3.0 0.0 25 60
+ 0.51888 0 1 tcp 1040 ------- 14 0.0 3.0 45 82
- 0.51888 0 1 tcp 1040 ------- 14 0.0 3.0 41 78
r 0.519712 1 0 ack 40 ------- 14 3.0 0.0 26 61
+ 0.519712 0 1 tcp 1040 ------- 14 0.0 3.0 46 83
- 0.519712 0 1 tcp 1040 ------- 14 0.0 3.0 42 79
r 0.520544 1 0 ack 40 ------- 14 3.0 0.0 27 62