+ 0.2 0 1 tcp 1000 ------- 14 0.0 3.0 0 0
- 0.2 0 1 tcp 1000 ------- 14 0.0 3.0 0 0
r 0.2108 0 1 tcp 1000 ------- 14 0.0 3.0 0 0
+ 0.2108 1 2 tcp 1000 ------- 14 0.0 3.0 0 0
- 0.2108 1 2 tcp 1000 ------- 14 0.0 3.0 0 0
r 0.2216 1 2 tcp 1000 ------- 14 0.0 3.0 0 0
+ 0.2216 2 3 tcp 1000 ------- 14 0.0 3.0 0 0
- 0.2216 2 3 tcp 1000 ------- 14 0.0 3.0 0 0
r 0.2324 2 3 tcp 1000 ------- 14 0.0 3.0 0 0
+ 0.2324 3 2 ack 40 ------- 14 3.0 0.0 0 1
- 0.2324 3 2 ack 40 ------- 14 3.0 0.0 0 1
r 0.242432 3 2 ack 40 ------- 14 3.0 0.0 0 1
+ 0.242432 2 1 ack 40 ------- 14 3.0 0.0 0 1
- 0.242432 2 1 ack 40 ------- 14 3.0 0.0 0 1
r 0.252464 2 1 ack 40 ------- 14 3.0 0.0 0 1
+ 0.252464 1 0 ack 40 ------- 14 3.0 0.0 0 1
- 0.252464 1 0 ack 40 ------- 14 3.0 0.0 0 1
r 0.262496 1 0 ack 40 ------- 14 3.0 0.0 0 1
+ 0.262496 0 1 tcp 1000 ------- 14 0.0 3.0 1 2
- 0.262496 0 1 tcp 1000 ------- 14 0.0 3.0 1 2
r 0.273296 0 1 tcp 1000 ------- 14 0.0 3.0 1 2
+ 0.273296 1 2 tcp 1000 ------- 14 0.0 3.0 1 2
- 0.273296 1 2 tcp 1000 ------- 14 0.0 3.0 1 2
r 0.284096 1 2 tcp 1000 ------- 14 0.0 3.0 1 2
+ 0.284096 2 3 tcp 1000 ------- 14 0.0 3.0 1 2
- 0.284096 2 3 tcp 1000 ------- 14 0.0 3.0 1 2
r 0.294896 2 3 tcp 1000 ------- 14 0.0 3.0 1 2
+ 0.294896 3 2 ack 40 ------- 14 3.0 0.0 1 3
- 0.294896 3 2 ack 40 ------- 14 3.0 0.0 1 3
r 0.304928 3 2 ack 40 ------- 14 3.0 0.0 1 3
+ 0.304928 2 1 ack 40 ------- 14 3.0 0.0 1 3
- 0.304928 2 1 ack 40 ------- 14 3.0 0.0 1 3
r 0.31496 2 1 ack 40 ------- 14 3.0 0.0 1 3
+ 0.31496 1 0 ack 40 ------- 14 3.0 0.0 1 3
- 0.31496 1 0 ack 40 ------- 14 3.0 0.0 1 3
r 0.324992 1 0 ack 40 ------- 14 3.0 0.0 1 3
+ 0.324992 0 1 tcp 1000 ------- 14 0.0 3.0 2 4
- 0.324992 0 1 tcp 1000 ------- 14 0.0 3.0 2 4
+ 0.324992 0 1 tcp 1000 ------- 14 0.0 3.0 3 5
+ 0.324992 0 1 tcp 1000 ------- 14 0.0 3.0 4 6
- 0.325792 0 1 tcp 1000 ------- 14 0.0 3.0 3 5
- 0.326592 0 1 tcp 1000 ------- 14 0.0 3.0 4 6
r 0.335792 0 1 tcp 1000 ------- 14 0.0 3.0 2 4
+ 0.335792 1 2 tcp 1000 ------- 14 0.0 3.0 2 4
- 0.335792 1 2 tcp 1000 ------- 14 0.0 3.0 2 4
r 0.336592 0 1 tcp 1000 ------- 14 0.0 3.0 3 5
+ 0.336592 1 2 tcp 1000 ------- 14 0.0 3.0 3 5
- 0.336592 1 2 tcp 1000 ------- 14 0.0 3.0 3 5
r 0.337392 0 1 tcp 1000 ------- 14 0.0 3.0 4 6
+ 0.337392 1 2 tcp 1000 ------- 14 0.0 3.0 4 6
- 0.337392 1 2 tcp 1000 ------- 14 0.0 3.0 4 6
r 0.346592 1 2 tcp 1000 ------- 14 0.0 3.0 2 4
+ 0.346592 2 3 tcp 1000 ------- 14 0.0 3.0 2 4
- 0.346592 2 3 tcp 1000 ------- 14 0.0 3.0 2 4
r 0.347392 1 2 tcp 1000 ------- 14 0.0 3.0 3 5
+ 0.347392 2 3 tcp 1000 ------- 14 0.0 3.0 3 5
- 0.347392 2 3 tcp 1000 ------- 14 0.0 3.0 3 5
r 0.348192 1 2 tcp 1000 ------- 14 0.0 3.0 4 6
+ 0.348192 2 3 tcp 1000 ------- 14 0.0 3.0 4 6
- 0.348192 2 3 tcp 1000 ------- 14 0.0 3.0 4 6
r 0.357392 2 3 tcp 1000 ------- 14 0.0 3.0 2 4
+ 0.357392 3 2 ack 40 ------- 14 3.0 0.0 2 7
- 0.357392 3 2 ack 40 ------- 14 3.0 0.0 2 7
r 0.358192 2 3 tcp 1000 ------- 14 0.0 3.0 3 5
+ 0.358192 3 2 ack 40 ------- 14 3.0 0.0 3 8
- 0.358192 3 2 ack 40 ------- 14 3.0 0.0 3 8
r 0.358992 2 3 tcp 1000 ------- 14 0.0 3.0 4 6
+ 0.358992 3 2 ack 40 ------- 14 3.0 0.0 4 9
- 0.358992 3 2 ack 40 ------- 14 3.0 0.0 4 9
r 0.367424 3 2 ack 40 ------- 14 3.0 0.0 2 7
+ 0.367424 2 1 ack 40 ------- 14 3.0 0.0 2 7
- 0.367424 2 1 ack 40 ------- 14 3.0 0.0 2 7
r 0.368224 3 2 ack 40 ------- 14 3.0 0.0 3 8
+ 0.368224 2 1 ack 40 ------- 14 3.0 0.0 3 8
- 0.368224 2 1 ack 40 ------- 14 3.0 0.0 3 8
r 0.369024 3 2 ack 40 ------- 14 3.0 0.0 4 9
+ 0.369024 2 1 ack 40 ------- 14 3.0 0.0 4 9
- 0.369024 2 1 ack 40 ------- 14 3.0 0.0 4 9
r 0.377456 2 1 ack 40 ------- 14 3.0 0.0 2 7
+ 0.377456 1 0 ack 40 ------- 14 3.0 0.0 2 7
- 0.377456 1 0 ack 40 ------- 14 3.0 0.0 2 7
r 0.378256 2 1 ack 40 ------- 14 3.0 0.0 3 8
+ 0.378256 1 0 ack 40 ------- 14 3.0 0.0 3 8
- 0.378256 1 0 ack 40 ------- 14 3.0 0.0 3 8
r 0.379056 2 1 ack 40 ------- 14 3.0 0.0 4 9
+ 0.379056 1 0 ack 40 ------- 14 3.0 0.0 4 9
- 0.379056 1 0 ack 40 ------- 14 3.0 0.0 4 9
r 0.387488 1 0 ack 40 ------- 14 3.0 0.0 2 7
+ 0.387488 0 1 tcp 1000 ------- 14 0.0 3.0 5 10
- 0.387488 0 1 tcp 1000 ------- 14 0.0 3.0 5 10
r 0.388288 1 0 ack 40 ------- 14 3.0 0.0 3 8
+ 0.388288 0 1 tcp 1000 ------- 14 0.0 3.0 6 11
- 0.388288 0 1 tcp 1000 ------- 14 0.0 3.0 6 11
r 0.389088 1 0 ack 40 ------- 14 3.0 0.0 4 9
+ 0.389088 0 1 tcp 1000 ------- 14 0.0 3.0 7 12
- 0.389088 0 1 tcp 1000 ------- 14 0.0 3.0 7 12
r 0.398288 0 1 tcp 1000 ------- 14 0.0 3.0 5 10
+ 0.398288 1 2 tcp 1000 ------- 14 0.0 3.0 5 10
- 0.398288 1 2 tcp 1000 ------- 14 0.0 3.0 5 10
r 0.399088 0 1 tcp 1000 ------- 14 0.0 3.0 6 11
+ 0.399088 1 2 tcp 1000 ------- 14 0.0 3.0 6 11
- 0.399088 1 2 tcp 1000 ------- 14 0.0 3.0 6 11
r 0.399888 0 1 tcp 1000 ------- 14 0.0 3.0 7 12
+ 0.399888 1 2 tcp 1000 ------- 14 0.0 3.0 7 12
- 0.399888 1 2 tcp 1000 ------- 14 0.0 3.0 7 12
+ 0.4 4 1 tcp 1000 ------- 56 4.0 5.0 0 13
- 0.4 4 1 tcp 1000 ------- 56 4.0 5.0 0 13
r 0.409088 1 2 tcp 1000 ------- 14 0.0 3.0 5 10
+ 0.409088 2 3 tcp 1000 ------- 14 0.0 3.0 5 10
- 0.409088 2 3 tcp 1000 ------- 14 0.0 3.0 5 10
r 0.409888 1 2 tcp 1000 ------- 14 0.0 3.0 6 11
+ 0.409888 2 3 tcp 1000 ------- 14 0.0 3.0 6 11
- 0.409888 2 3 tcp 1000 ------- 14 0.0 3.0 6 11
r 0.410688 1 2 tcp 1000 ------- 14 0.0 3.0 7 12
+ 0.410688 2 3 tcp 1000 ------- 14 0.0 3.0 7 12
- 0.410688 2 3 tcp 1000 ------- 14 0.0 3.0 7 12
r 0.4108 4 1 tcp 1000 ------- 56 4.0 5.0 0 13
+ 0.4108 1 2 tcp 1000 ------- 56 4.0 5.0 0 13
- 0.4108 1 2 tcp 1000 ------- 56 4.0 5.0 0 13
r 0.419888 2 3 tcp 1000 ------- 14 0.0 3.0 5 10
+ 0.419888 3 2 ack 40 ------- 14 3.0 0.0 5 14
- 0.419888 3 2 ack 40 ------- 14 3.0 0.0 5 14
r 0.420688 2 3 tcp 1000 ------- 14 0.0 3.0 6 11
+ 0.420688 3 2 ack 40 ------- 14 3.0 0.0 6 15
- 0.420688 3 2 ack 40 ------- 14 3.0 0.0 6 15
r 0.421488 2 3 tcp 1000 ------- 14 0.0 3.0 7 12
+ 0.421488 3 2 ack 40 ------- 14 3.0 0.0 7 16
- 0.421488 3 2 ack 40 ------- 14 3.0 0.0 7 16
r 0.4216 1 2 tcp 1000 ------- 56 4.0 5.0 0 13
+ 0.4216 2 5 tcp 1000 ------- 56 4.0 5.0 0 13
- 0.4216 2 5 tcp 1000 ------- 56 4.0 5.0 0 13
r 0.42992 3 2 ack 40 ------- 14 3.0 0.0 5 14
+ 0.42992 2 1 ack 40 ------- 14 3.0 0.0 5 14
- 0.42992 2 1 ack 40 ------- 14 3.0 0.0 5 14
r 0.43072 3 2 ack 40 ------- 14 3.0 0.0 6 15
+ 0.43072 2 1 ack 40 ------- 14 3.0 0.0 6 15
- 0.43072 2 1 ack 40 ------- 14 3.0 0.0 6 15
r 0.43152 3 2 ack 40 ------- 14 3.0 0.0 7 16
+ 0.43152 2 1 ack 40 ------- 14 3.0 0.0 7 16
- 0.43152 2 1 ack 40 ------- 14 3.0 0.0 7 16
r 0.4324 2 5 tcp 1000 ------- 56 4.0 5.0 0 13
+ 0.4324 5 2 ack 40 ------- 56 5.0 4.0 0 17
- 0.4324 5 2 ack 40 ------- 56 5.0 4.0 0 17
r 0.439952 2 1 ack 40 ------- 14 3.0 0.0 5 14
+ 0.439952 1 0 ack 40 ------- 14 3.0 0.0 5 14
- 0.439952 1 0 ack 40 ------- 14 3.0 0.0 5 14
r 0.440752 2 1 ack 40 ------- 14 3.0 0.0 6 15
+ 0.440752 1 0 ack 40 ------- 14 3.0 0.0 6 15
- 0.440752 1 0 ack 40 ------- 14 3.0 0.0 6 15
r 0.441552 2 1 ack 40 ------- 14 3.0 0.0 7 16
+ 0.441552 1 0 ack 40 ------- 14 3.0 0.0 7 16
- 0.441552 1 0 ack 40 ------- 14 3.0 0.0 7 16
r 0.442432 5 2 ack 40 ------- 56 5.0 4.0 0 17
+ 0.442432 2 1 ack 40 ------- 56 5.0 4.0 0 17
- 0.442432 2 1 ack 40 ------- 56 5.0 4.0 0 17
r 0.449984 1 0 ack 40 ------- 14 3.0 0.0 5 14
+ 0.449984 0 1 tcp 1000 ------- 14 0.0 3.0 8 18
- 0.449984 0 1 tcp 1000 ------- 14 0.0 3.0 8 18
+ 0.449984 0 1 tcp 1000 ------- 14 0.0 3.0 9 19
r 0.450784 1 0 ack 40 ------- 14 3.0 0.0 6 15
+ 0.450784 0 1 tcp 1000 ------- 14 0.0 3.0 10 20
+ 0.450784 0 1 tcp 1000 ------- 14 0.0 3.0 11 21
- 0.450784 0 1 tcp 1000 ------- 14 0.0 3.0 9 19
r 0.451584 1 0 ack 40 ------- 14 3.0 0.0 7 16
+ 0.451584 0 1 tcp 1000 ------- 14 0.0 3.0 12 22
+ 0.451584 0 1 tcp 1000 ------- 14 0.0 3.0 13 23
- 0.451584 0 1 tcp 1000 ------- 14 0.0 3.0 10 20
- 0.452384 0 1 tcp 1000 ------- 14 0.0 3.0 11 21
r 0.452464 2 1 ack 40 ------- 56 5.0 4.0 0 17
+ 0.452464 1 4 ack 40 ------- 56 5.0 4.0 0 17
- 0.452464 1 4 ack 40 ------- 56 5.0 4.0 0 17
- 0.453184 0 1 tcp 1000 ------- 14 0.0 3.0 12 22
- 0.453984 0 1 tcp 1000 ------- 14 0.0 3.0 13 23
r 0.460784 0 1 tcp 1000 ------- 14 0.0 3.0 8 18
+ 0.460784 1 2 tcp 1000 ------- 14 0.0 3.0 8 18
- 0.460784 1 2 tcp 1000 ------- 14 0.0 3.0 8 18
r 0.461584 0 1 tcp 1000 ------- 14 0.0 3.0 9 19
+ 0.461584 1 2 tcp 1000 ------- 14 0.0 3.0 9 19
- 0.461584 1 2 tcp 1000 ------- 14 0.0 3.0 9 19
r 0.462384 0 1 tcp 1000 ------- 14 0.0 3.0 10 20
+ 0.462384 1 2 tcp 1000 ------- 14 0.0 3.0 10 20
- 0.462384 1 2 tcp 1000 ------- 14 0.0 3.0 10 20
r 0.462496 1 4 ack 40 ------- 56 5.0 4.0 0 17
+ 0.462496 4 1 tcp 1000 ------- 56 4.0 5.0 1 24
- 0.462496 4 1 tcp 1000 ------- 56 4.0 5.0 1 24
r 0.463184 0 1 tcp 1000 ------- 14 0.0 3.0 11 21
+ 0.463184 1 2 tcp 1000 ------- 14 0.0 3.0 11 21
- 0.463184 1 2 tcp 1000 ------- 14 0.0 3.0 11 21
r 0.463984 0 1 tcp 1000 ------- 14 0.0 3.0 12 22
+ 0.463984 1 2 tcp 1000 ------- 14 0.0 3.0 12 22
- 0.463984 1 2 tcp 1000 ------- 14 0.0 3.0 12 22
r 0.464784 0 1 tcp 1000 ------- 14 0.0 3.0 13 23
+ 0.464784 1 2 tcp 1000 ------- 14 0.0 3.0 13 23
- 0.464784 1 2 tcp 1000 ------- 14 0.0 3.0 13 23
r 0.471584 1 2 tcp 1000 ------- 14 0.0 3.0 8 18
+ 0.471584 2 3 tcp 1000 ------- 14 0.0 3.0 8 18
- 0.471584 2 3 tcp 1000 ------- 14 0.0 3.0 8 18
r 0.472384 1 2 tcp 1000 ------- 14 0.0 3.0 9 19
+ 0.472384 2 3 tcp 1000 ------- 14 0.0 3.0 9 19
- 0.472384 2 3 tcp 1000 ------- 14 0.0 3.0 9 19
r 0.473184 1 2 tcp 1000 ------- 14 0.0 3.0 10 20
+ 0.473184 2 3 tcp 1000 ------- 14 0.0 3.0 10 20
- 0.473184 2 3 tcp 1000 ------- 14 0.0 3.0 10 20
r 0.473296 4 1 tcp 1000 ------- 56 4.0 5.0 1 24
+ 0.473296 1 2 tcp 1000 ------- 56 4.0 5.0 1 24
- 0.473296 1 2 tcp 1000 ------- 56 4.0 5.0 1 24
r 0.473984 1 2 tcp 1000 ------- 14 0.0 3.0 11 21
+ 0.473984 2 3 tcp 1000 ------- 14 0.0 3.0 11 21
- 0.473984 2 3 tcp 1000 ------- 14 0.0 3.0 11 21
r 0.474784 1 2 tcp 1000 ------- 14 0.0 3.0 12 22
+ 0.474784 2 3 tcp 1000 ------- 14 0.0 3.0 12 22
- 0.474784 2 3 tcp 1000 ------- 14 0.0 3.0 12 22
r 0.475584 1 2 tcp 1000 ------- 14 0.0 3.0 13 23
+ 0.475584 2 3 tcp 1000 ------- 14 0.0 3.0 13 23
- 0.475584 2 3 tcp 1000 ------- 14 0.0 3.0 13 23
r 0.482384 2 3 tcp 1000 ------- 14 0.0 3.0 8 18
+ 0.482384 3 2 ack 40 ------- 14 3.0 0.0 8 25
- 0.482384 3 2 ack 40 ------- 14 3.0 0.0 8 25
r 0.483184 2 3 tcp 1000 ------- 14 0.0 3.0 9 19
+ 0.483184 3 2 ack 40 ------- 14 3.0 0.0 9 26
- 0.483184 3 2 ack 40 ------- 14 3.0 0.0 9 26
r 0.483984 2 3 tcp 1000 ------- 14 0.0 3.0 10 20
+ 0.483984 3 2 ack 40 ------- 14 3.0 0.0 10 27
- 0.483984 3 2 ack 40 ------- 14 3.0 0.0 10 27
r 0.484096 1 2 tcp 1000 ------- 56 4.0 5.0 1 24
+ 0.484096 2 5 tcp 1000 ------- 56 4.0 5.0 1 24
- 0.484096 2 5 tcp 1000 ------- 56 4.0 5.0 1 24
r 0.484784 2 3 tcp 1000 ------- 14 0.0 3.0 11 21
+ 0.484784 3 2 ack 40 ------- 14 3.0 0.0 11 28
- 0.484784 3 2 ack 40 ------- 14 3.0 0.0 11 28
r 0.485584 2 3 tcp 1000 ------- 14 0.0 3.0 12 22
+ 0.485584 3 2 ack 40 ------- 14 3.0 0.0 12 29
- 0.485584 3 2 ack 40 ------- 14 3.0 0.0 12 29
r 0.486384 2 3 tcp 1000 ------- 14 0.0 3.0 13 23
+ 0.486384 3 2 ack 40 ------- 14 3.0 0.0 13 30
- 0.486384 3 2 ack 40 ------- 14 3.0 0.0 13 30
r 0.492416 3 2 ack 40 ------- 14 3.0 0.0 8 25
+ 0.492416 2 1 ack 40 ------- 14 3.0 0.0 8 25
- 0.492416 2 1 ack 40 ------- 14 3.0 0.0 8 25
r 0.493216 3 2 ack 40 ------- 14 3.0 0.0 9 26
+ 0.493216 2 1 ack 40 ------- 14 3.0 0.0 9 26
- 0.493216 2 1 ack 40 ------- 14 3.0 0.0 9 26
r 0.494016 3 2 ack 40 ------- 14 3.0 0.0 10 27
+ 0.494016 2 1 ack 40 ------- 14 3.0 0.0 10 27
- 0.494016 2 1 ack 40 ------- 14 3.0 0.0 10 27
r 0.494816 3 2 ack 40 ------- 14 3.0 0.0 11 28
+ 0.494816 2 1 ack 40 ------- 14 3.0 0.0 11 28
- 0.494816 2 1 ack 40 ------- 14 3.0 0.0 11 28
r 0.494896 2 5 tcp 1000 ------- 56 4.0 5.0 1 24
+ 0.494896 5 2 ack 40 ------- 56 5.0 4.0 1 31
- 0.494896 5 2 ack 40 ------- 56 5.0 4.0 1 31
r 0.495616 3 2 ack 40 ------- 14 3.0 0.0 12 29
+ 0.495616 2 1 ack 40 ------- 14 3.0 0.0 12 29
- 0.495616 2 1 ack 40 ------- 14 3.0 0.0 12 29
r 0.496416 3 2 ack 40 ------- 14 3.0 0.0 13 30
+ 0.496416 2 1 ack 40 ------- 14 3.0 0.0 13 30
- 0.496416 2 1 ack 40 ------- 14 3.0 0.0 13 30
r 0.502448 2 1 ack 40 ------- 14 3.0 0.0 8 25
+ 0.502448 1 0 ack 40 ------- 14 3.0 0.0 8 25
- 0.502448 1 0 ack 40 ------- 14 3.0 0.0 8 25
r 0.503248 2 1 ack 40 ------- 14 3.0 0.0 9 26
+ 0.503248 1 0 ack 40 ------- 14 3.0 0.0 9 26
- 0.503248 1 0 ack 40 ------- 14 3.0 0.0 9 26
r 0.504048 2 1 ack 40 ------- 14 3.0 0.0 10 27
+ 0.504048 1 0 ack 40 ------- 14 3.0 0.0 10 27
- 0.504048 1 0 ack 40 ------- 14 3.0 0.0 10 27
r 0.504848 2 1 ack 40 ------- 14 3.0 0.0 11 28
+ 0.504848 1 0 ack 40 ------- 14 3.0 0.0 11 28
- 0.504848 1 0 ack 40 ------- 14 3.0 0.0 11 28
r 0.504928 5 2 ack 40 ------- 56 5.0 4.0 1 31
+ 0.504928 2 1 ack 40 ------- 56 5.0 4.0 1 31
- 0.504928 2 1 ack 40 ------- 56 5.0 4.0 1 31
r 0.505648 2 1 ack 40 ------- 14 3.0 0.0 12 29
+ 0.505648 1 0 ack 40 ------- 14 3.0 0.0 12 29
- 0.505648 1 0 ack 40 ------- 14 3.0 0.0 12 29
r 0.506448 2 1 ack 40 ------- 14 3.0 0.0 13 30
+ 0.506448 1 0 ack 40 ------- 14 3.0 0.0 13 30
- 0.506448 1 0 ack 40 ------- 14 3.0 0.0 13 30
r 0.51248 1 0 ack 40 ------- 14 3.0 0.0 8 25
+ 0.51248 0 1 tcp 1000 ------- 14 0.0 3.0 14 32
- 0.51248 0 1 tcp 1000 ------- 14 0.0 3.0 14 32
r 0.51328 1 0 ack 40 ------- 14 3.0 0.0 9 26
+ 0.51328 0 1 tcp 1000 ------- 14 0.0 3.0 15 33
- 0.51328 0 1 tcp 1000 ------- 14 0.0 3.0 15 33
r 0.51408 1 0 ack 40 ------- 14 3.0 0.0 10 27
+ 0.51408 0 1 tcp 1000 ------- 14 0.0 3.0 16 34
- 0.51408 0 1 tcp 1000 ------- 14 0.0 3.0 16 34
r 0.51488 1 0 ack 40 ------- 14 3.0 0.0 11 28
+ 0.51488 0 1 tcp 1000 ------- 14 0.0 3.0 17 35
- 0.51488 0 1 tcp 1000 ------- 14 0.0 3.0 17 35
r 0.51496 2 1 ack 40 ------- 56 5.0 4.0 1 31
+ 0.51496 1 4 ack 40 ------- 56 5.0 4.0 1 31
- 0.51496 1 4 ack 40 ------- 56 5.0 4.0 1 31
r 0.51568 1 0 ack 40 ------- 14 3.0 0.0 12 29
+ 0.51568 0 1 tcp 1000 ------- 14 0.0 3.0 18 36
- 0.51568 0 1 tcp 1000 ------- 14 0.0 3.0 18 36
r 0.51648 1 0 ack 40 ------- 14 3.0 0.0 13 30
+ 0.51648 0 1 tcp 1000 ------- 14 0.0 3.0 19 37
- 0.51648 0 1 tcp 1000 ------- 14 0.0 3.0 19 37
r 0.52328 0 1 tcp 1000 ------- 14 0.0 3.0 14 32
+ 0.52328 1 2 tcp 1000 ------- 14 0.0 3.0 14 32
- 0.52328 1 2 tcp 1000 ------- 14 0.0 3.0 14 32
r 0.52408 0 1 tcp 1000 ------- 14 0.0 3.0 15 33
+ 0.52408 1 2 tcp 1000 ------- 14 0.0 3.0 15 33
- 0.52408 1 2 tcp 1000 ------- 14 0.0 3.0 15 33
r 0.52488 0 1 tcp 1000 ------- 14 0.0 3.0 16 34
+ 0.52488 1 2 tcp 1000 ------- 14 0.0 3.0 16 34
- 0.52488 1 2 tcp 1000 ------- 14 0.0 3.0 16 34
r 0.524992 1 4 ack 40 ------- 56 5.0 4.0 1 31
+ 0.524992 4 1 tcp 1000 ------- 56 4.0 5.0 2 38
- 0.524992 4 1 tcp 1000 ------- 56 4.0 5.0 2 38
+ 0.524992 4 1 tcp 1000 ------- 56 4.0 5.0 3 39
+ 0.524992 4 1 tcp 1000 ------- 56 4.0 5.0 4 40
r 0.52568 0 1 tcp 1000 ------- 14 0.0 3.0 17 35
+ 0.52568 1 2 tcp 1000 ------- 14 0.0 3.0 17 35
- 0.52568 1 2 tcp 1000 ------- 14 0.0 3.0 17 35
- 0.525792 4 1 tcp 1000 ------- 56 4.0 5.0 3 39
r 0.52648 0 1 tcp 1000 ------- 14 0.0 3.0 18 36
+ 0.52648 1 2 tcp 1000 ------- 14 0.0 3.0 18 36
- 0.52648 1 2 tcp 1000 ------- 14 0.0 3.0 18 36
- 0.526592 4 1 tcp 1000 ------- 56 4.0 5.0 4 40
r 0.52728 0 1 tcp 1000 ------- 14 0.0 3.0 19 37
+ 0.52728 1 2 tcp 1000 ------- 14 0.0 3.0 19 37
- 0.52728 1 2 tcp 1000 ------- 14 0.0 3.0 19 37
r 0.53408 1 2 tcp 1000 ------- 14 0.0 3.0 14 32
+ 0.53408 2 3 tcp 1000 ------- 14 0.0 3.0 14 32
- 0.53408 2 3 tcp 1000 ------- 14 0.0 3.0 14 32
r 0.53488 1 2 tcp 1000 ------- 14 0.0 3.0 15 33
+ 0.53488 2 3 tcp 1000 ------- 14 0.0 3.0 15 33
- 0.53488 2 3 tcp 1000 ------- 14 0.0 3.0 15 33
r 0.53568 1 2 tcp 1000 ------- 14 0.0 3.0 16 34
+ 0.53568 2 3 tcp 1000 ------- 14 0.0 3.0 16 34
- 0.53568 2 3 tcp 1000 ------- 14 0.0 3.0 16 34
r 0.535792 4 1 tcp 1000 ------- 56 4.0 5.0 2 38
+ 0.535792 1 2 tcp 1000 ------- 56 4.0 5.0 2 38
- 0.535792 1 2 tcp 1000 ------- 56 4.0 5.0 2 38
r 0.53648 1 2 tcp 1000 ------- 14 0.0 3.0 17 35
+ 0.53648 2 3 tcp 1000 ------- 14 0.0 3.0 17 35
- 0.53648 2 3 tcp 1000 ------- 14 0.0 3.0 17 35
r 0.536592 4 1 tcp 1000 ------- 56 4.0 5.0 3 39
+ 0.536592 1 2 tcp 1000 ------- 56 4.0 5.0 3 39
- 0.536592 1 2 tcp 1000 ------- 56 4.0 5.0 3 39
r 0.53728 1 2 tcp 1000 ------- 14 0.0 3.0 18 36
+ 0.53728 2 3 tcp 1000 ------- 14 0.0 3.0 18 36
- 0.53728 2 3 tcp 1000 ------- 14 0.0 3.0 18 36
r 0.537392 4 1 tcp 1000 ------- 56 4.0 5.0 4 40
+ 0.537392 1 2 tcp 1000 ------- 56 4.0 5.0 4 40
- 0.537392 1 2 tcp 1000 ------- 56 4.0 5.0 4 40
r 0.53808 1 2 tcp 1000 ------- 14 0.0 3.0 19 37
+ 0.53808 2 3 tcp 1000 ------- 14 0.0 3.0 19 37
- 0.53808 2 3 tcp 1000 ------- 14 0.0 3.0 19 37
r 0.54488 2 3 tcp 1000 ------- 14 0.0 3.0 14 32
+ 0.54488 3 2 ack 40 ------- 14 3.0 0.0 14 41
- 0.54488 3 2 ack 40 ------- 14 3.0 0.0 14 41
r 0.54568 2 3 tcp 1000 ------- 14 0.0 3.0 15 33
+ 0.54568 3 2 ack 40 ------- 14 3.0 0.0 15 42
- 0.54568 3 2 ack 40 ------- 14 3.0 0.0 15 42
r 0.54648 2 3 tcp 1000 ------- 14 0.0 3.0 16 34
+ 0.54648 3 2 ack 40 ------- 14 3.0 0.0 16 43
- 0.54648 3 2 ack 40 ------- 14 3.0 0.0 16 43
r 0.546592 1 2 tcp 1000 ------- 56 4.0 5.0 2 38
+ 0.546592 2 5 tcp 1000 ------- 56 4.0 5.0 2 38
- 0.546592 2 5 tcp 1000 ------- 56 4.0 5.0 2 38
r 0.54728 2 3 tcp 1000 ------- 14 0.0 3.0 17 35
+ 0.54728 3 2 ack 40 ------- 14 3.0 0.0 17 44
- 0.54728 3 2 ack 40 ------- 14 3.0 0.0 17 44
r 0.547392 1 2 tcp 1000 ------- 56 4.0 5.0 3 39
+ 0.547392 2 5 tcp 1000 ------- 56 4.0 5.0 3 39
- 0.547392 2 5 tcp 1000 ------- 56 4.0 5.0 3 39
r 0.54808 2 3 tcp 1000 ------- 14 0.0 3.0 18 36
+ 0.54808 3 2 ack 40 ------- 14 3.0 0.0 18 45
- 0.54808 3 2 ack 40 ------- 14 3.0 0.0 18 45
r 0.548192 1 2 tcp 1000 ------- 56 4.0 5.0 4 40
+ 0.548192 2 5 tcp 1000 ------- 56 4.0 5.0 4 40
- 0.548192 2 5 tcp 1000 ------- 56 4.0 5.0 4 40
r 0.54888 2 3 tcp 1000 ------- 14 0.0 3.0 19 37
+ 0.54888 3 2 ack 40 ------- 14 3.0 0.0 19 46
- 0.54888 3 2 ack 40 ------- 14 3.0 0.0 19 46
r 0.554912 3 2 ack 40 ------- 14 3.0 0.0 14 41
+ 0.554912 2 1 ack 40 ------- 14 3.0 0.0 14 41
- 0.554912 2 1 ack 40 ------- 14 3.0 0.0 14 41
r 0.555712 3 2 ack 40 ------- 14 3.0 0.0 15 42
+ 0.555712 2 1 ack 40 ------- 14 3.0 0.0 15 42
- 0.555712 2 1 ack 40 ------- 14 3.0 0.0 15 42
r 0.556512 3 2 ack 40 ------- 14 3.0 0.0 16 43
+ 0.556512 2 1 ack 40 ------- 14 3.0 0.0 16 43
- 0.556512 2 1 ack 40 ------- 14 3.0 0.0 16 43
r 0.557312 3 2 ack 40 ------- 14 3.0 0.0 17 44
+ 0.557312 2 1 ack 40 ------- 14 3.0 0.0 17 44
- 0.557312 2 1 ack 40 ------- 14 3.0 0.0 17 44
r 0.557392 2 5 tcp 1000 ------- 56 4.0 5.0 2 38
+ 0.557392 5 2 ack 40 ------- 56 5.0 4.0 2 47
- 0.557392 5 2 ack 40 ------- 56 5.0 4.0 2 47
r 0.558112 3 2 ack 40 ------- 14 3.0 0.0 18 45
+ 0.558112 2 1 ack 40 ------- 14 3.0 0.0 18 45
- 0.558112 2 1 ack 40 ------- 14 3.0 0.0 18 45
r 0.558192 2 5 tcp 1000 ------- 56 4.0 5.0 3 39
+ 0.558192 5 2 ack 40 ------- 56 5.0 4.0 3 48
- 0.558192 5 2 ack 40 ------- 56 5.0 4.0 3 48
r 0.558912 3 2 ack 40 ------- 14 3.0 0.0 19 46
+ 0.558912 2 1 ack 40 ------- 14 3.0 0.0 19 46
- 0.558912 2 1 ack 40 ------- 14 3.0 0.0 19 46
r 0.558992 2 5 tcp 1000 ------- 56 4.0 5.0 4 40
+ 0.558992 5 2 ack 40 ------- 56 5.0 4.0 4 49
- 0.558992 5 2 ack 40 ------- 56 5.0 4.0 4 49
r 0.564944 2 1 ack 40 ------- 14 3.0 0.0 14 41
+ 0.564944 1 0 ack 40 ------- 14 3.0 0.0 14 41
- 0.564944 1 0 ack 40 ------- 14 3.0 0.0 14 41
r 0.565744 2 1 ack 40 ------- 14 3.0 0.0 15 42
+ 0.565744 1 0 ack 40 ------- 14 3.0 0.0 15 42
- 0.565744 1 0 ack 40 ------- 14 3.0 0.0 15 42
r 0.566544 2 1 ack 40 ------- 14 3.0 0.0 16 43
+ 0.566544 1 0 ack 40 ------- 14 3.0 0.0 16 43
- 0.566544 1 0 ack 40 ------- 14 3.0 0.0 16 43
r 0.567344 2 1 ack 40 ------- 14 3.0 0.0 17 44
+ 0.567344 1 0 ack 40 ------- 14 3.0 0.0 17 44
- 0.567344 1 0 ack 40 ------- 14 3.0 0.0 17 44
r 0.567424 5 2 ack 40 ------- 56 5.0 4.0 2 47
+ 0.567424 2 1 ack 40 ------- 56 5.0 4.0 2 47
- 0.567424 2 1 ack 40 ------- 56 5.0 4.0 2 47
r 0.568144 2 1 ack 40 ------- 14 3.0 0.0 18 45
+ 0.568144 1 0 ack 40 ------- 14 3.0 0.0 18 45
- 0.568144 1 0 ack 40 ------- 14 3.0 0.0 18 45
r 0.568224 5 2 ack 40 ------- 56 5.0 4.0 3 48
+ 0.568224 2 1 ack 40 ------- 56 5.0 4.0 3 48
- 0.568224 2 1 ack 40 ------- 56 5.0 4.0 3 48
r 0.568944 2 1 ack 40 ------- 14 3.0 0.0 19 46
+ 0.568944 1 0 ack 40 ------- 14 3.0 0.0 19 46
- 0.568944 1 0 ack 40 ------- 14 3.0 0.0 19 46
r 0.569024 5 2 ack 40 ------- 56 5.0 4.0 4 49
+ 0.569024 2 1 ack 40 ------- 56 5.0 4.0 4 49
- 0.569024 2 1 ack 40 ------- 56 5.0 4.0 4 49
r 0.574976 1 0 ack 40 ------- 14 3.0 0.0 14 41
+ 0.574976 0 1 tcp 1000 ------- 14 0.0 3.0 20 50
- 0.574976 0 1 tcp 1000 ------- 14 0.0 3.0 20 50
+ 0.574976 0 1 tcp 1000 ------- 14 0.0 3.0 21 51
r 0.575776 1 0 ack 40 ------- 14 3.0 0.0 15 42
+ 0.575776 0 1 tcp 1000 ------- 14 0.0 3.0 22 52
+ 0.575776 0 1 tcp 1000 ------- 14 0.0 3.0 23 53
- 0.575776 0 1 tcp 1000 ------- 14 0.0 3.0 21 51
r 0.576576 1 0 ack 40 ------- 14 3.0 0.0 16 43
+ 0.576576 0 1 tcp 1000 ------- 14 0.0 3.0 24 54
+ 0.576576 0 1 tcp 1000 ------- 14 0.0 3.0 25 55
- 0.576576 0 1 tcp 1000 ------- 14 0.0 3.0 22 52
r 0.577376 1 0 ack 40 ------- 14 3.0 0.0 17 44
+ 0.577376 0 1 tcp 1000 ------- 14 0.0 3.0 26 56
+ 0.577376 0 1 tcp 1000 ------- 14 0.0 3.0 27 57
- 0.577376 0 1 tcp 1000 ------- 14 0.0 3.0 23 53
r 0.577456 2 1 ack 40 ------- 56 5.0 4.0 2 47
+ 0.577456 1 4 ack 40 ------- 56 5.0 4.0 2 47
- 0.577456 1 4 ack 40 ------- 56 5.0 4.0 2 47
r 0.578176 1 0 ack 40 ------- 14 3.0 0.0 18 45
+ 0.578176 0 1 tcp 1000 ------- 14 0.0 3.0 28 58
+ 0.578176 0 1 tcp 1000 ------- 14 0.0 3.0 29 59
- 0.578176 0 1 tcp 1000 ------- 14 0.0 3.0 24 54
r 0.578256 2 1 ack 40 ------- 56 5.0 4.0 3 48
+ 0.578256 1 4 ack 40 ------- 56 5.0 4.0 3 48
- 0.578256 1 4 ack 40 ------- 56 5.0 4.0 3 48
r 0.578976 1 0 ack 40 ------- 14 3.0 0.0 19 46
+ 0.578976 0 1 tcp 1000 ------- 14 0.0 3.0 30 60
+ 0.578976 0 1 tcp 1000 ------- 14 0.0 3.0 31 61
- 0.578976 0 1 tcp 1000 ------- 14 0.0 3.0 25 55
r 0.579056 2 1 ack 40 ------- 56 5.0 4.0 4 49
+ 0.579056 1 4 ack 40 ------- 56 5.0 4.0 4 49
- 0.579056 1 4 ack 40 ------- 56 5.0 4.0 4 49
- 0.579776 0 1 tcp 1000 ------- 14 0.0 3.0 26 56
- 0.580576 0 1 tcp 1000 ------- 14 0.0 3.0 27 57
- 0.581376 0 1 tcp 1000 ------- 14 0.0 3.0 28 58
- 0.582176 0 1 tcp 1000 ------- 14 0.0 3.0 29 59
- 0.582976 0 1 tcp 1000 ------- 14 0.0 3.0 30 60
- 0.583776 0 1 tcp 1000 ------- 14 0.0 3.0 31 61
r 0.585776 0 1 tcp 1000 ------- 14 0.0 3.0 20 50
+ 0.585776 1 2 tcp 1000 ------- 14 0.0 3.0 20 50
- 0.585776 1 2 tcp 1000 ------- 14 0.0 3.0 20 50
r 0.586576 0 1 tcp 1000 ------- 14 0.0 3.0 21 51
+ 0.586576 1 2 tcp 1000 ------- 14 0.0 3.0 21 51
- 0.586576 1 2 tcp 1000 ------- 14 0.0 3.0 21 51
r 0.587376 0 1 tcp 1000 ------- 14 0.0 3.0 22 52
+ 0.587376 1 2 tcp 1000 ------- 14 0.0 3.0 22 52
- 0.587376 1 2 tcp 1000 ------- 14 0.0 3.0 22 52
r 0.587488 1 4 ack 40 ------- 56 5.0 4.0 2 47
+ 0.587488 4 1 tcp 1000 ------- 56 4.0 5.0 5 62
- 0.587488 4 1 tcp 1000 ------- 56 4.0 5.0 5 62
r 0.588176 0 1 tcp 1000 ------- 14 0.0 3.0 23 53
+ 0.588176 1 2 tcp 1000 ------- 14 0.0 3.0 23 53
- 0.588176 1 2 tcp 1000 ------- 14 0.0 3.0 23 53
r 0.588288 1 4 ack 40 ------- 56 5.0 4.0 3 48
+ 0.588288 4 1 tcp 1000 ------- 56 4.0 5.0 6 63
- 0.588288 4 1 tcp 1000 ------- 56 4.0 5.0 6 63
r 0.588976 0 1 tcp 1000 ------- 14 0.0 3.0 24 54
+ 0.588976 1 2 tcp 1000 ------- 14 0.0 3.0 24 54
- 0.588976 1 2 tcp 1000 ------- 14 0.0 3.0 24 54
r 0.589088 1 4 ack 40 ------- 56 5.0 4.0 4 49
+ 0.589088 4 1 tcp 1000 ------- 56 4.0 5.0 7 64
- 0.589088 4 1 tcp 1000 ------- 56 4.0 5.0 7 64
r 0.589776 0 1 tcp 1000 ------- 14 0.0 3.0 25 55
+ 0.589776 1 2 tcp 1000 ------- 14 0.0 3.0 25 55
- 0.589776 1 2 tcp 1000 ------- 14 0.0 3.0 25 55
r 0.590576 0 1 tcp 1000 ------- 14 0.0 3.0 26 56
+ 0.590576 1 2 tcp 1000 ------- 14 0.0 3.0 26 56
- 0.590576 1 2 tcp 1000 ------- 14 0.0 3.0 26 56
r 0.591376 0 1 tcp 1000 ------- 14 0.0 3.0 27 57
+ 0.591376 1 2 tcp 1000 ------- 14 0.0 3.0 27 57
- 0.591376 1 2 tcp 1000 ------- 14 0.0 3.0 27 57
r 0.592176 0 1 tcp 1000 ------- 14 0.0 3.0 28 58
+ 0.592176 1 2 tcp 1000 ------- 14 0.0 3.0 28 58
- 0.592176 1 2 tcp 1000 ------- 14 0.0 3.0 28 58
r 0.592976 0 1 tcp 1000 ------- 14 0.0 3.0 29 59
+ 0.592976 1 2 tcp 1000 ------- 14 0.0 3.0 29 59
- 0.592976 1 2 tcp 1000 ------- 14 0.0 3.0 29 59
r 0.593776 0 1 tcp 1000 ------- 14 0.0 3.0 30 60
+ 0.593776 1 2 tcp 1000 ------- 14 0.0 3.0 30 60
- 0.593776 1 2 tcp 1000 ------- 14 0.0 3.0 30 60
r 0.594576 0 1 tcp 1000 ------- 14 0.0 3.0 31 61
+ 0.594576 1 2 tcp 1000 ------- 14 0.0 3.0 31 61
- 0.594576 1 2 tcp 1000 ------- 14 0.0 3.0 31 61
r 0.596576 1 2 tcp 1000 ------- 14 0.0 3.0 20 50
+ 0.596576 2 3 tcp 1000 ------- 14 0.0 3.0 20 50
- 0.596576 2 3 tcp 1000 ------- 14 0.0 3.0 20 50
r 0.597376 1 2 tcp 1000 ------- 14 0.0 3.0 21 51
+ 0.597376 2 3 tcp 1000 ------- 14 0.0 3.0 21 51
- 0.597376 2 3 tcp 1000 ------- 14 0.0 3.0 21 51
r 0.598176 1 2 tcp 1000 ------- 14 0.0 3.0 22 52
+ 0.598176 2 3 tcp 1000 ------- 14 0.0 3.0 22 52
- 0.598176 2 3 tcp 1000 ------- 14 0.0 3.0 22 52
r 0.598288 4 1 tcp 1000 ------- 56 4.0 5.0 5 62
+ 0.598288 1 2 tcp 1000 ------- 56 4.0 5.0 5 62
- 0.598288 1 2 tcp 1000 ------- 56 4.0 5.0 5 62
r 0.598976 1 2 tcp 1000 ------- 14 0.0 3.0 23 53
+ 0.598976 2 3 tcp 1000 ------- 14 0.0 3.0 23 53
- 0.598976 2 3 tcp 1000 ------- 14 0.0 3.0 23 53
r 0.599088 4 1 tcp 1000 ------- 56 4.0 5.0 6 63
+ 0.599088 1 2 tcp 1000 ------- 56 4.0 5.0 6 63
- 0.599088 1 2 tcp 1000 ------- 56 4.0 5.0 6 63
r 0.599776 1 2 tcp 1000 ------- 14 0.0 3.0 24 54
+ 0.599776 2 3 tcp 1000 ------- 14 0.0 3.0 24 54
- 0.599776 2 3 tcp 1000 ------- 14 0.0 3.0 24 54
r 0.599888 4 1 tcp 1000 ------- 56 4.0 5.0 7 64
+ 0.599888 1 2 tcp 1000 ------- 56 4.0 5.0 7 64
- 0.599888 1 2 tcp 1000 ------- 56 4.0 5.0 7 64
r 0.600576 1 2 tcp 1000 ------- 14 0.0 3.0 25 55
+ 0.600576 2 3 tcp 1000 ------- 14 0.0 3.0 25 55
- 0.600576 2 3 tcp 1000 ------- 14 0.0 3.0 25 55
r 0.601376 1 2 tcp 1000 ------- 14 0.0 3.0 26 56
+ 0.601376 2 3 tcp 1000 ------- 14 0.0 3.0 26 56
- 0.601376 2 3 tcp 1000 ------- 14 0.0 3.0 26 56
r 0.602176 1 2 tcp 1000 ------- 14 0.0 3.0 27 57
+ 0.602176 2 3 tcp 1000 ------- 14 0.0 3.0 27 57
- 0.602176 2 3 tcp 1000 ------- 14 0.0 3.0 27 57
r 0.602976 1 2 tcp 1000 ------- 14 0.0 3.0 28 58
+ 0.602976 2 3 tcp 1000 ------- 14 0.0 3.0 28 58
- 0.602976 2 3 tcp 1000 ------- 14 0.0 3.0 28 58
r 0.603776 1 2 tcp 1000 ------- 14 0.0 3.0 29 59
+ 0.603776 2 3 tcp 1000 ------- 14 0.0 3.0 29 59
- 0.603776 2 3 tcp 1000 ------- 14 0.0 3.0 29 59
r 0.604576 1 2 tcp 1000 ------- 14 0.0 3.0 30 60
+ 0.604576 2 3 tcp 1000 ------- 14 0.0 3.0 30 60
- 0.604576 2 3 tcp 1000 ------- 14 0.0 3.0 30 60
r 0.605376 1 2 tcp 1000 ------- 14 0.0 3.0 31 61
+ 0.605376 2 3 tcp 1000 ------- 14 0.0 3.0 31 61
- 0.605376 2 3 tcp 1000 ------- 14 0.0 3.0 31 61
r 0.607376 2 3 tcp 1000 ------- 14 0.0 3.0 20 50
+ 0.607376 3 2 ack 40 ------- 14 3.0 0.0 20 65
- 0.607376 3 2 ack 40 ------- 14 3.0 0.0 20 65
r 0.608176 2 3 tcp 1000 ------- 14 0.0 3.0 21 51
+ 0.608176 3 2 ack 40 ------- 14 3.0 0.0 21 66
- 0.608176 3 2 ack 40 ------- 14 3.0 0.0 21 66
r 0.608976 2 3 tcp 1000 ------- 14 0.0 3.0 22 52
+ 0.608976 3 2 ack 40 ------- 14 3.0 0.0 22 67
- 0.608976 3 2 ack 40 ------- 14 3.0 0.0 22 67
r 0.609088 1 2 tcp 1000 ------- 56 4.0 5.0 5 62
+ 0.609088 2 5 tcp 1000 ------- 56 4.0 5.0 5 62
- 0.609088 2 5 tcp 1000 ------- 56 4.0 5.0 5 62
r 0.609776 2 3 tcp 1000 ------- 14 0.0 3.0 23 53
+ 0.609776 3 2 ack 40 ------- 14 3.0 0.0 23 68
- 0.609776 3 2 ack 40 ------- 14 3.0 0.0 23 68
r 0.609888 1 2 tcp 1000 ------- 56 4.0 5.0 6 63
+ 0.609888 2 5 tcp 1000 ------- 56 4.0 5.0 6 63
- 0.609888 2 5 tcp 1000 ------- 56 4.0 5.0 6 63
r 0.610576 2 3 tcp 1000 ------- 14 0.0 3.0 24 54
+ 0.610576 3 2 ack 40 ------- 14 3.0 0.0 24 69
- 0.610576 3 2 ack 40 ------- 14 3.0 0.0 24 69
r 0.610688 1 2 tcp 1000 ------- 56 4.0 5.0 7 64
+ 0.610688 2 5 tcp 1000 ------- 56 4.0 5.0 7 64
- 0.610688 2 5 tcp 1000 ------- 56 4.0 5.0 7 64
r 0.611376 2 3 tcp 1000 ------- 14 0.0 3.0 25 55
+ 0.611376 3 2 ack 40 ------- 14 3.0 0.0 25 70
- 0.611376 3 2 ack 40 ------- 14 3.0 0.0 25 70
r 0.612176 2 3 tcp 1000 ------- 14 0.0 3.0 26 56
+ 0.612176 3 2 ack 40 ------- 14 3.0 0.0 26 71
- 0.612176 3 2 ack 40 ------- 14 3.0 0.0 26 71
r 0.612976 2 3 tcp 1000 ------- 14 0.0 3.0 27 57
+ 0.612976 3 2 ack 40 ------- 14 3.0 0.0 27 72
- 0.612976 3 2 ack 40 ------- 14 3.0 0.0 27 72
r 0.613776 2 3 tcp 1000 ------- 14 0.0 3.0 28 58
+ 0.613776 3 2 ack 40 ------- 14 3.0 0.0 28 73
- 0.613776 3 2 ack 40 ------- 14 3.0 0.0 28 73
r 0.614576 2 3 tcp 1000 ------- 14 0.0 3.0 29 59
+ 0.614576 3 2 ack 40 ------- 14 3.0 0.0 29 74
- 0.614576 3 2 ack 40 ------- 14 3.0 0.0 29 74
r 0.615376 2 3 tcp 1000 ------- 14 0.0 3.0 30 60
+ 0.615376 3 2 ack 40 ------- 14 3.0 0.0 30 75
- 0.615376 3 2 ack 40 ------- 14 3.0 0.0 30 75
r 0.616176 2 3 tcp 1000 ------- 14 0.0 3.0 31 61
+ 0.616176 3 2 ack 40 ------- 14 3.0 0.0 31 76
- 0.616176 3 2 ack 40 ------- 14 3.0 0.0 31 76
r 0.617408 3 2 ack 40 ------- 14 3.0 0.0 20 65
+ 0.617408 2 1 ack 40 ------- 14 3.0 0.0 20 65
- 0.617408 2 1 ack 40 ------- 14 3.0 0.0 20 65
r 0.618208 3 2 ack 40 ------- 14 3.0 0.0 21 66
+ 0.618208 2 1 ack 40 ------- 14 3.0 0.0 21 66
- 0.618208 2 1 ack 40 ------- 14 3.0 0.0 21 66
r 0.619008 3 2 ack 40 ------- 14 3.0 0.0 22 67
+ 0.619008 2 1 ack 40 ------- 14 3.0 0.0 22 67
- 0.619008 2 1 ack 40 ------- 14 3.0 0.0 22 67
r 0.619808 3 2 ack 40 ------- 14 3.0 0.0 23 68
+ 0.619808 2 1 ack 40 ------- 14 3.0 0.0 23 68
- 0.619808 2 1 ack 40 ------- 14 3.0 0.0 23 68
r 0.619888 2 5 tcp 1000 ------- 56 4.0 5.0 5 62
+ 0.619888 5 2 ack 40 ------- 56 5.0 4.0 5 77
- 0.619888 5 2 ack 40 ------- 56 5.0 4.0 5 77
r 0.620608 3 2 ack 40 ------- 14 3.0 0.0 24 69
+ 0.620608 2 1 ack 40 ------- 14 3.0 0.0 24 69
- 0.620608 2 1 ack 40 ------- 14 3.0 0.0 24 69
r 0.620688 2 5 tcp 1000 ------- 56 4.0 5.0 6 63
+ 0.620688 5 2 ack 40 ------- 56 5.0 4.0 6 78
- 0.620688 5 2 ack 40 ------- 56 5.0 4.0 6 78
r 0.621408 3 2 ack 40 ------- 14 3.0 0.0 25 70
+ 0.621408 2 1 ack 40 ------- 14 3.0 0.0 25 70
- 0.621408 2 1 ack 40 ------- 14 3.0 0.0 25 70
r 0.621488 2 5 tcp 1000 ------- 56 4.0 5.0 7 64
+ 0.621488 5 2 ack 40 ------- 56 5.0 4.0 7 79
- 0.621488 5 2 ack 40 ------- 56 5.0 4.0 7 79
r 0.622208 3 2 ack 40 ------- 14 3.0 0.0 26 71