+ 0.2 0 1 tcp 40 ------- 14 0.0 3.0 0 0
- 0.2 0 1 tcp 40 ------- 14 0.0 3.0 0 0
r 0.210032 0 1 tcp 40 ------- 14 0.0 3.0 0 0
+ 0.210032 1 2 tcp 40 ------- 14 0.0 3.0 0 0
- 0.210032 1 2 tcp 40 ------- 14 0.0 3.0 0 0
r 0.220245 1 2 tcp 40 ------- 14 0.0 3.0 0 0
+ 0.220245 2 3 tcp 40 ------- 14 0.0 3.0 0 0
- 0.220245 2 3 tcp 40 ------- 14 0.0 3.0 0 0
r 0.230277 2 3 tcp 40 ------- 14 0.0 3.0 0 0
+ 0.230277 3 2 ack 40 ------- 14 3.0 0.0 0 1
- 0.230277 3 2 ack 40 ------- 14 3.0 0.0 0 1
r 0.240309 3 2 ack 40 ------- 14 3.0 0.0 0 1
+ 0.240309 2 1 ack 40 ------- 14 3.0 0.0 0 1
- 0.240309 2 1 ack 40 ------- 14 3.0 0.0 0 1
r 0.250523 2 1 ack 40 ------- 14 3.0 0.0 0 1
+ 0.250523 1 0 ack 40 ------- 14 3.0 0.0 0 1
- 0.250523 1 0 ack 40 ------- 14 3.0 0.0 0 1
r 0.260555 1 0 ack 40 ------- 14 3.0 0.0 0 1
+ 0.260555 0 1 tcp 1040 ------- 14 0.0 3.0 1 2
- 0.260555 0 1 tcp 1040 ------- 14 0.0 3.0 1 2
+ 0.260555 0 1 tcp 1040 ------- 14 0.0 3.0 2 3
- 0.261387 0 1 tcp 1040 ------- 14 0.0 3.0 2 3
r 0.271387 0 1 tcp 1040 ------- 14 0.0 3.0 1 2
+ 0.271387 1 2 tcp 1040 ------- 14 0.0 3.0 1 2
- 0.271387 1 2 tcp 1040 ------- 14 0.0 3.0 1 2
r 0.272219 0 1 tcp 1040 ------- 14 0.0 3.0 2 3
+ 0.272219 1 2 tcp 1040 ------- 14 0.0 3.0 2 3
- 0.276933 1 2 tcp 1040 ------- 14 0.0 3.0 2 3
r 0.286933 1 2 tcp 1040 ------- 14 0.0 3.0 1 2
+ 0.286933 2 3 tcp 1040 ------- 14 0.0 3.0 1 2
- 0.286933 2 3 tcp 1040 ------- 14 0.0 3.0 1 2
r 0.29248 1 2 tcp 1040 ------- 14 0.0 3.0 2 3
+ 0.29248 2 3 tcp 1040 ------- 14 0.0 3.0 2 3
- 0.29248 2 3 tcp 1040 ------- 14 0.0 3.0 2 3
r 0.297765 2 3 tcp 1040 ------- 14 0.0 3.0 1 2
+ 0.297765 3 2 ack 40 ------- 14 3.0 0.0 1 4
- 0.297765 3 2 ack 40 ------- 14 3.0 0.0 1 4
r 0.303312 2 3 tcp 1040 ------- 14 0.0 3.0 2 3
+ 0.303312 3 2 ack 40 ------- 14 3.0 0.0 2 5
- 0.303312 3 2 ack 40 ------- 14 3.0 0.0 2 5
r 0.307797 3 2 ack 40 ------- 14 3.0 0.0 1 4
+ 0.307797 2 1 ack 40 ------- 14 3.0 0.0 1 4
- 0.307797 2 1 ack 40 ------- 14 3.0 0.0 1 4
r 0.313344 3 2 ack 40 ------- 14 3.0 0.0 2 5
+ 0.313344 2 1 ack 40 ------- 14 3.0 0.0 2 5
- 0.313344 2 1 ack 40 ------- 14 3.0 0.0 2 5
r 0.318011 2 1 ack 40 ------- 14 3.0 0.0 1 4
+ 0.318011 1 0 ack 40 ------- 14 3.0 0.0 1 4
- 0.318011 1 0 ack 40 ------- 14 3.0 0.0 1 4
r 0.323557 2 1 ack 40 ------- 14 3.0 0.0 2 5
+ 0.323557 1 0 ack 40 ------- 14 3.0 0.0 2 5
- 0.323557 1 0 ack 40 ------- 14 3.0 0.0 2 5
r 0.328043 1 0 ack 40 ------- 14 3.0 0.0 1 4
+ 0.328043 0 1 tcp 1040 ------- 14 0.0 3.0 3 6
- 0.328043 0 1 tcp 1040 ------- 14 0.0 3.0 3 6
+ 0.328043 0 1 tcp 1040 ------- 14 0.0 3.0 4 7
- 0.328875 0 1 tcp 1040 ------- 14 0.0 3.0 4 7
r 0.333589 1 0 ack 40 ------- 14 3.0 0.0 2 5
+ 0.333589 0 1 tcp 1040 ------- 14 0.0 3.0 5 8
- 0.333589 0 1 tcp 1040 ------- 14 0.0 3.0 5 8
+ 0.333589 0 1 tcp 1040 ------- 14 0.0 3.0 6 9
- 0.334421 0 1 tcp 1040 ------- 14 0.0 3.0 6 9
r 0.338875 0 1 tcp 1040 ------- 14 0.0 3.0 3 6
+ 0.338875 1 2 tcp 1040 ------- 14 0.0 3.0 3 6
- 0.338875 1 2 tcp 1040 ------- 14 0.0 3.0 3 6
r 0.339707 0 1 tcp 1040 ------- 14 0.0 3.0 4 7
+ 0.339707 1 2 tcp 1040 ------- 14 0.0 3.0 4 7
r 0.344421 0 1 tcp 1040 ------- 14 0.0 3.0 5 8
+ 0.344421 1 2 tcp 1040 ------- 14 0.0 3.0 5 8
- 0.344421 1 2 tcp 1040 ------- 14 0.0 3.0 4 7
r 0.345253 0 1 tcp 1040 ------- 14 0.0 3.0 6 9
+ 0.345253 1 2 tcp 1040 ------- 14 0.0 3.0 6 9
- 0.349968 1 2 tcp 1040 ------- 14 0.0 3.0 5 8
r 0.354421 1 2 tcp 1040 ------- 14 0.0 3.0 3 6
+ 0.354421 2 3 tcp 1040 ------- 14 0.0 3.0 3 6
- 0.354421 2 3 tcp 1040 ------- 14 0.0 3.0 3 6
- 0.355515 1 2 tcp 1040 ------- 14 0.0 3.0 6 9
r 0.359968 1 2 tcp 1040 ------- 14 0.0 3.0 4 7
+ 0.359968 2 3 tcp 1040 ------- 14 0.0 3.0 4 7
- 0.359968 2 3 tcp 1040 ------- 14 0.0 3.0 4 7
r 0.365253 2 3 tcp 1040 ------- 14 0.0 3.0 3 6
+ 0.365253 3 2 ack 40 ------- 14 3.0 0.0 3 10
- 0.365253 3 2 ack 40 ------- 14 3.0 0.0 3 10
r 0.365515 1 2 tcp 1040 ------- 14 0.0 3.0 5 8
+ 0.365515 2 3 tcp 1040 ------- 14 0.0 3.0 5 8
- 0.365515 2 3 tcp 1040 ------- 14 0.0 3.0 5 8
r 0.3708 2 3 tcp 1040 ------- 14 0.0 3.0 4 7
+ 0.3708 3 2 ack 40 ------- 14 3.0 0.0 4 11
- 0.3708 3 2 ack 40 ------- 14 3.0 0.0 4 11
r 0.371061 1 2 tcp 1040 ------- 14 0.0 3.0 6 9
+ 0.371061 2 3 tcp 1040 ------- 14 0.0 3.0 6 9
- 0.371061 2 3 tcp 1040 ------- 14 0.0 3.0 6 9
r 0.375285 3 2 ack 40 ------- 14 3.0 0.0 3 10
+ 0.375285 2 1 ack 40 ------- 14 3.0 0.0 3 10
- 0.375285 2 1 ack 40 ------- 14 3.0 0.0 3 10
r 0.376347 2 3 tcp 1040 ------- 14 0.0 3.0 5 8
+ 0.376347 3 2 ack 40 ------- 14 3.0 0.0 5 12
- 0.376347 3 2 ack 40 ------- 14 3.0 0.0 5 12
r 0.380832 3 2 ack 40 ------- 14 3.0 0.0 4 11
+ 0.380832 2 1 ack 40 ------- 14 3.0 0.0 4 11
- 0.380832 2 1 ack 40 ------- 14 3.0 0.0 4 11
r 0.381893 2 3 tcp 1040 ------- 14 0.0 3.0 6 9
+ 0.381893 3 2 ack 40 ------- 14 3.0 0.0 6 13
- 0.381893 3 2 ack 40 ------- 14 3.0 0.0 6 13
r 0.385499 2 1 ack 40 ------- 14 3.0 0.0 3 10
+ 0.385499 1 0 ack 40 ------- 14 3.0 0.0 3 10
- 0.385499 1 0 ack 40 ------- 14 3.0 0.0 3 10
r 0.386379 3 2 ack 40 ------- 14 3.0 0.0 5 12
+ 0.386379 2 1 ack 40 ------- 14 3.0 0.0 5 12
- 0.386379 2 1 ack 40 ------- 14 3.0 0.0 5 12
r 0.391045 2 1 ack 40 ------- 14 3.0 0.0 4 11
+ 0.391045 1 0 ack 40 ------- 14 3.0 0.0 4 11
- 0.391045 1 0 ack 40 ------- 14 3.0 0.0 4 11
r 0.391925 3 2 ack 40 ------- 14 3.0 0.0 6 13
+ 0.391925 2 1 ack 40 ------- 14 3.0 0.0 6 13
- 0.391925 2 1 ack 40 ------- 14 3.0 0.0 6 13
r 0.395531 1 0 ack 40 ------- 14 3.0 0.0 3 10
+ 0.395531 0 1 tcp 1040 ------- 14 0.0 3.0 7 14
- 0.395531 0 1 tcp 1040 ------- 14 0.0 3.0 7 14
+ 0.395531 0 1 tcp 1040 ------- 14 0.0 3.0 8 15
- 0.396363 0 1 tcp 1040 ------- 14 0.0 3.0 8 15
r 0.396592 2 1 ack 40 ------- 14 3.0 0.0 5 12
+ 0.396592 1 0 ack 40 ------- 14 3.0 0.0 5 12
- 0.396592 1 0 ack 40 ------- 14 3.0 0.0 5 12
r 0.401077 1 0 ack 40 ------- 14 3.0 0.0 4 11
+ 0.401077 0 1 tcp 1040 ------- 14 0.0 3.0 9 16
- 0.401077 0 1 tcp 1040 ------- 14 0.0 3.0 9 16
+ 0.401077 0 1 tcp 1040 ------- 14 0.0 3.0 10 17
- 0.401909 0 1 tcp 1040 ------- 14 0.0 3.0 10 17
r 0.402139 2 1 ack 40 ------- 14 3.0 0.0 6 13
+ 0.402139 1 0 ack 40 ------- 14 3.0 0.0 6 13
- 0.402139 1 0 ack 40 ------- 14 3.0 0.0 6 13
r 0.406363 0 1 tcp 1040 ------- 14 0.0 3.0 7 14
+ 0.406363 1 2 tcp 1040 ------- 14 0.0 3.0 7 14
- 0.406363 1 2 tcp 1040 ------- 14 0.0 3.0 7 14
r 0.406624 1 0 ack 40 ------- 14 3.0 0.0 5 12
+ 0.406624 0 1 tcp 1040 ------- 14 0.0 3.0 11 18
- 0.406624 0 1 tcp 1040 ------- 14 0.0 3.0 11 18
+ 0.406624 0 1 tcp 1040 ------- 14 0.0 3.0 12 19
r 0.407195 0 1 tcp 1040 ------- 14 0.0 3.0 8 15
+ 0.407195 1 2 tcp 1040 ------- 14 0.0 3.0 8 15
- 0.407456 0 1 tcp 1040 ------- 14 0.0 3.0 12 19
r 0.411909 0 1 tcp 1040 ------- 14 0.0 3.0 9 16
+ 0.411909 1 2 tcp 1040 ------- 14 0.0 3.0 9 16
- 0.411909 1 2 tcp 1040 ------- 14 0.0 3.0 8 15
r 0.412171 1 0 ack 40 ------- 14 3.0 0.0 6 13
+ 0.412171 0 1 tcp 1040 ------- 14 0.0 3.0 13 20
- 0.412171 0 1 tcp 1040 ------- 14 0.0 3.0 13 20
+ 0.412171 0 1 tcp 1040 ------- 14 0.0 3.0 14 21
r 0.412741 0 1 tcp 1040 ------- 14 0.0 3.0 10 17
+ 0.412741 1 2 tcp 1040 ------- 14 0.0 3.0 10 17
- 0.413003 0 1 tcp 1040 ------- 14 0.0 3.0 14 21
r 0.417456 0 1 tcp 1040 ------- 14 0.0 3.0 11 18
+ 0.417456 1 2 tcp 1040 ------- 14 0.0 3.0 11 18
- 0.417456 1 2 tcp 1040 ------- 14 0.0 3.0 9 16
r 0.418288 0 1 tcp 1040 ------- 14 0.0 3.0 12 19
+ 0.418288 1 2 tcp 1040 ------- 14 0.0 3.0 12 19
r 0.421909 1 2 tcp 1040 ------- 14 0.0 3.0 7 14
+ 0.421909 2 3 tcp 1040 ------- 14 0.0 3.0 7 14
- 0.421909 2 3 tcp 1040 ------- 14 0.0 3.0 7 14
r 0.423003 0 1 tcp 1040 ------- 14 0.0 3.0 13 20
+ 0.423003 1 2 tcp 1040 ------- 14 0.0 3.0 13 20
- 0.423003 1 2 tcp 1040 ------- 14 0.0 3.0 10 17
r 0.423835 0 1 tcp 1040 ------- 14 0.0 3.0 14 21
+ 0.423835 1 2 tcp 1040 ------- 14 0.0 3.0 14 21
r 0.427456 1 2 tcp 1040 ------- 14 0.0 3.0 8 15
+ 0.427456 2 3 tcp 1040 ------- 14 0.0 3.0 8 15
- 0.427456 2 3 tcp 1040 ------- 14 0.0 3.0 8 15
- 0.428549 1 2 tcp 1040 ------- 14 0.0 3.0 11 18
r 0.432741 2 3 tcp 1040 ------- 14 0.0 3.0 7 14
+ 0.432741 3 2 ack 40 ------- 14 3.0 0.0 7 22
- 0.432741 3 2 ack 40 ------- 14 3.0 0.0 7 22
r 0.433003 1 2 tcp 1040 ------- 14 0.0 3.0 9 16
+ 0.433003 2 3 tcp 1040 ------- 14 0.0 3.0 9 16
- 0.433003 2 3 tcp 1040 ------- 14 0.0 3.0 9 16
- 0.434096 1 2 tcp 1040 ------- 14 0.0 3.0 12 19
r 0.438288 2 3 tcp 1040 ------- 14 0.0 3.0 8 15
+ 0.438288 3 2 ack 40 ------- 14 3.0 0.0 8 23
- 0.438288 3 2 ack 40 ------- 14 3.0 0.0 8 23
r 0.438549 1 2 tcp 1040 ------- 14 0.0 3.0 10 17
+ 0.438549 2 3 tcp 1040 ------- 14 0.0 3.0 10 17
- 0.438549 2 3 tcp 1040 ------- 14 0.0 3.0 10 17
- 0.439643 1 2 tcp 1040 ------- 14 0.0 3.0 13 20
r 0.442773 3 2 ack 40 ------- 14 3.0 0.0 7 22
+ 0.442773 2 1 ack 40 ------- 14 3.0 0.0 7 22
- 0.442773 2 1 ack 40 ------- 14 3.0 0.0 7 22
r 0.443835 2 3 tcp 1040 ------- 14 0.0 3.0 9 16
+ 0.443835 3 2 ack 40 ------- 14 3.0 0.0 9 24
- 0.443835 3 2 ack 40 ------- 14 3.0 0.0 9 24
r 0.444096 1 2 tcp 1040 ------- 14 0.0 3.0 11 18
+ 0.444096 2 3 tcp 1040 ------- 14 0.0 3.0 11 18
- 0.444096 2 3 tcp 1040 ------- 14 0.0 3.0 11 18
- 0.445189 1 2 tcp 1040 ------- 14 0.0 3.0 14 21
r 0.44832 3 2 ack 40 ------- 14 3.0 0.0 8 23
+ 0.44832 2 1 ack 40 ------- 14 3.0 0.0 8 23
- 0.44832 2 1 ack 40 ------- 14 3.0 0.0 8 23
r 0.449381 2 3 tcp 1040 ------- 14 0.0 3.0 10 17
+ 0.449381 3 2 ack 40 ------- 14 3.0 0.0 10 25
- 0.449381 3 2 ack 40 ------- 14 3.0 0.0 10 25
r 0.449643 1 2 tcp 1040 ------- 14 0.0 3.0 12 19
+ 0.449643 2 3 tcp 1040 ------- 14 0.0 3.0 12 19
- 0.449643 2 3 tcp 1040 ------- 14 0.0 3.0 12 19
r 0.452987 2 1 ack 40 ------- 14 3.0 0.0 7 22
+ 0.452987 1 0 ack 40 ------- 14 3.0 0.0 7 22
- 0.452987 1 0 ack 40 ------- 14 3.0 0.0 7 22
r 0.453867 3 2 ack 40 ------- 14 3.0 0.0 9 24
+ 0.453867 2 1 ack 40 ------- 14 3.0 0.0 9 24
- 0.453867 2 1 ack 40 ------- 14 3.0 0.0 9 24
r 0.454928 2 3 tcp 1040 ------- 14 0.0 3.0 11 18
+ 0.454928 3 2 ack 40 ------- 14 3.0 0.0 11 26
- 0.454928 3 2 ack 40 ------- 14 3.0 0.0 11 26
r 0.455189 1 2 tcp 1040 ------- 14 0.0 3.0 13 20
+ 0.455189 2 3 tcp 1040 ------- 14 0.0 3.0 13 20
- 0.455189 2 3 tcp 1040 ------- 14 0.0 3.0 13 20
r 0.458533 2 1 ack 40 ------- 14 3.0 0.0 8 23
+ 0.458533 1 0 ack 40 ------- 14 3.0 0.0 8 23
- 0.458533 1 0 ack 40 ------- 14 3.0 0.0 8 23
r 0.459413 3 2 ack 40 ------- 14 3.0 0.0 10 25
+ 0.459413 2 1 ack 40 ------- 14 3.0 0.0 10 25
- 0.459413 2 1 ack 40 ------- 14 3.0 0.0 10 25
r 0.460475 2 3 tcp 1040 ------- 14 0.0 3.0 12 19
+ 0.460475 3 2 ack 40 ------- 14 3.0 0.0 12 27
- 0.460475 3 2 ack 40 ------- 14 3.0 0.0 12 27
r 0.460736 1 2 tcp 1040 ------- 14 0.0 3.0 14 21
+ 0.460736 2 3 tcp 1040 ------- 14 0.0 3.0 14 21
- 0.460736 2 3 tcp 1040 ------- 14 0.0 3.0 14 21
r 0.463019 1 0 ack 40 ------- 14 3.0 0.0 7 22
+ 0.463019 0 1 tcp 1040 ------- 14 0.0 3.0 15 28
- 0.463019 0 1 tcp 1040 ------- 14 0.0 3.0 15 28
+ 0.463019 0 1 tcp 1040 ------- 14 0.0 3.0 16 29
- 0.463851 0 1 tcp 1040 ------- 14 0.0 3.0 16 29
r 0.46408 2 1 ack 40 ------- 14 3.0 0.0 9 24
+ 0.46408 1 0 ack 40 ------- 14 3.0 0.0 9 24
- 0.46408 1 0 ack 40 ------- 14 3.0 0.0 9 24
r 0.46496 3 2 ack 40 ------- 14 3.0 0.0 11 26
+ 0.46496 2 1 ack 40 ------- 14 3.0 0.0 11 26
- 0.46496 2 1 ack 40 ------- 14 3.0 0.0 11 26
r 0.466021 2 3 tcp 1040 ------- 14 0.0 3.0 13 20
+ 0.466021 3 2 ack 40 ------- 14 3.0 0.0 13 30
- 0.466021 3 2 ack 40 ------- 14 3.0 0.0 13 30
r 0.468565 1 0 ack 40 ------- 14 3.0 0.0 8 23
+ 0.468565 0 1 tcp 1040 ------- 14 0.0 3.0 17 31
- 0.468565 0 1 tcp 1040 ------- 14 0.0 3.0 17 31
+ 0.468565 0 1 tcp 1040 ------- 14 0.0 3.0 18 32
- 0.469397 0 1 tcp 1040 ------- 14 0.0 3.0 18 32
r 0.469627 2 1 ack 40 ------- 14 3.0 0.0 10 25
+ 0.469627 1 0 ack 40 ------- 14 3.0 0.0 10 25
- 0.469627 1 0 ack 40 ------- 14 3.0 0.0 10 25
r 0.470507 3 2 ack 40 ------- 14 3.0 0.0 12 27
+ 0.470507 2 1 ack 40 ------- 14 3.0 0.0 12 27
- 0.470507 2 1 ack 40 ------- 14 3.0 0.0 12 27
r 0.471568 2 3 tcp 1040 ------- 14 0.0 3.0 14 21
+ 0.471568 3 2 ack 40 ------- 14 3.0 0.0 14 33
- 0.471568 3 2 ack 40 ------- 14 3.0 0.0 14 33
r 0.473851 0 1 tcp 1040 ------- 14 0.0 3.0 15 28
+ 0.473851 1 2 tcp 1040 ------- 14 0.0 3.0 15 28
- 0.473851 1 2 tcp 1040 ------- 14 0.0 3.0 15 28
r 0.474112 1 0 ack 40 ------- 14 3.0 0.0 9 24
+ 0.474112 0 1 tcp 1040 ------- 14 0.0 3.0 19 34
- 0.474112 0 1 tcp 1040 ------- 14 0.0 3.0 19 34
+ 0.474112 0 1 tcp 1040 ------- 14 0.0 3.0 20 35
r 0.474683 0 1 tcp 1040 ------- 14 0.0 3.0 16 29
+ 0.474683 1 2 tcp 1040 ------- 14 0.0 3.0 16 29
- 0.474944 0 1 tcp 1040 ------- 14 0.0 3.0 20 35
r 0.475173 2 1 ack 40 ------- 14 3.0 0.0 11 26
+ 0.475173 1 0 ack 40 ------- 14 3.0 0.0 11 26
- 0.475173 1 0 ack 40 ------- 14 3.0 0.0 11 26
r 0.476053 3 2 ack 40 ------- 14 3.0 0.0 13 30
+ 0.476053 2 1 ack 40 ------- 14 3.0 0.0 13 30
- 0.476053 2 1 ack 40 ------- 14 3.0 0.0 13 30
r 0.479397 0 1 tcp 1040 ------- 14 0.0 3.0 17 31
+ 0.479397 1 2 tcp 1040 ------- 14 0.0 3.0 17 31
- 0.479397 1 2 tcp 1040 ------- 14 0.0 3.0 16 29
r 0.479659 1 0 ack 40 ------- 14 3.0 0.0 10 25
+ 0.479659 0 1 tcp 1040 ------- 14 0.0 3.0 21 36
- 0.479659 0 1 tcp 1040 ------- 14 0.0 3.0 21 36
+ 0.479659 0 1 tcp 1040 ------- 14 0.0 3.0 22 37
r 0.480229 0 1 tcp 1040 ------- 14 0.0 3.0 18 32
+ 0.480229 1 2 tcp 1040 ------- 14 0.0 3.0 18 32
- 0.480491 0 1 tcp 1040 ------- 14 0.0 3.0 22 37
r 0.48072 2 1 ack 40 ------- 14 3.0 0.0 12 27
+ 0.48072 1 0 ack 40 ------- 14 3.0 0.0 12 27
- 0.48072 1 0 ack 40 ------- 14 3.0 0.0 12 27
r 0.4816 3 2 ack 40 ------- 14 3.0 0.0 14 33
+ 0.4816 2 1 ack 40 ------- 14 3.0 0.0 14 33
- 0.4816 2 1 ack 40 ------- 14 3.0 0.0 14 33
r 0.484944 0 1 tcp 1040 ------- 14 0.0 3.0 19 34
+ 0.484944 1 2 tcp 1040 ------- 14 0.0 3.0 19 34
- 0.484944 1 2 tcp 1040 ------- 14 0.0 3.0 17 31
r 0.485205 1 0 ack 40 ------- 14 3.0 0.0 11 26
+ 0.485205 0 1 tcp 1040 ------- 14 0.0 3.0 23 38
- 0.485205 0 1 tcp 1040 ------- 14 0.0 3.0 23 38
+ 0.485205 0 1 tcp 1040 ------- 14 0.0 3.0 24 39
r 0.485776 0 1 tcp 1040 ------- 14 0.0 3.0 20 35
+ 0.485776 1 2 tcp 1040 ------- 14 0.0 3.0 20 35
- 0.486037 0 1 tcp 1040 ------- 14 0.0 3.0 24 39
r 0.486267 2 1 ack 40 ------- 14 3.0 0.0 13 30
+ 0.486267 1 0 ack 40 ------- 14 3.0 0.0 13 30
- 0.486267 1 0 ack 40 ------- 14 3.0 0.0 13 30
r 0.489397 1 2 tcp 1040 ------- 14 0.0 3.0 15 28
+ 0.489397 2 3 tcp 1040 ------- 14 0.0 3.0 15 28
- 0.489397 2 3 tcp 1040 ------- 14 0.0 3.0 15 28
r 0.490491 0 1 tcp 1040 ------- 14 0.0 3.0 21 36
+ 0.490491 1 2 tcp 1040 ------- 14 0.0 3.0 21 36
- 0.490491 1 2 tcp 1040 ------- 14 0.0 3.0 18 32
r 0.490752 1 0 ack 40 ------- 14 3.0 0.0 12 27
+ 0.490752 0 1 tcp 1040 ------- 14 0.0 3.0 25 40
- 0.490752 0 1 tcp 1040 ------- 14 0.0 3.0 25 40
+ 0.490752 0 1 tcp 1040 ------- 14 0.0 3.0 26 41
r 0.491323 0 1 tcp 1040 ------- 14 0.0 3.0 22 37
+ 0.491323 1 2 tcp 1040 ------- 14 0.0 3.0 22 37
- 0.491584 0 1 tcp 1040 ------- 14 0.0 3.0 26 41
r 0.491813 2 1 ack 40 ------- 14 3.0 0.0 14 33
+ 0.491813 1 0 ack 40 ------- 14 3.0 0.0 14 33
- 0.491813 1 0 ack 40 ------- 14 3.0 0.0 14 33
r 0.494944 1 2 tcp 1040 ------- 14 0.0 3.0 16 29
+ 0.494944 2 3 tcp 1040 ------- 14 0.0 3.0 16 29
- 0.494944 2 3 tcp 1040 ------- 14 0.0 3.0 16 29
r 0.496037 0 1 tcp 1040 ------- 14 0.0 3.0 23 38
+ 0.496037 1 2 tcp 1040 ------- 14 0.0 3.0 23 38
- 0.496037 1 2 tcp 1040 ------- 14 0.0 3.0 19 34
r 0.496299 1 0 ack 40 ------- 14 3.0 0.0 13 30
+ 0.496299 0 1 tcp 1040 ------- 14 0.0 3.0 27 42
- 0.496299 0 1 tcp 1040 ------- 14 0.0 3.0 27 42
+ 0.496299 0 1 tcp 1040 ------- 14 0.0 3.0 28 43
r 0.496869 0 1 tcp 1040 ------- 14 0.0 3.0 24 39
+ 0.496869 1 2 tcp 1040 ------- 14 0.0 3.0 24 39
- 0.497131 0 1 tcp 1040 ------- 14 0.0 3.0 28 43
r 0.500229 2 3 tcp 1040 ------- 14 0.0 3.0 15 28
+ 0.500229 3 2 ack 40 ------- 14 3.0 0.0 15 44
- 0.500229 3 2 ack 40 ------- 14 3.0 0.0 15 44
r 0.500491 1 2 tcp 1040 ------- 14 0.0 3.0 17 31
+ 0.500491 2 3 tcp 1040 ------- 14 0.0 3.0 17 31
- 0.500491 2 3 tcp 1040 ------- 14 0.0 3.0 17 31
r 0.501584 0 1 tcp 1040 ------- 14 0.0 3.0 25 40
+ 0.501584 1 2 tcp 1040 ------- 14 0.0 3.0 25 40
- 0.501584 1 2 tcp 1040 ------- 14 0.0 3.0 20 35
r 0.501845 1 0 ack 40 ------- 14 3.0 0.0 14 33
+ 0.501845 0 1 tcp 1040 ------- 14 0.0 3.0 29 45
- 0.501845 0 1 tcp 1040 ------- 14 0.0 3.0 29 45
+ 0.501845 0 1 tcp 1040 ------- 14 0.0 3.0 30 46
r 0.502416 0 1 tcp 1040 ------- 14 0.0 3.0 26 41
+ 0.502416 1 2 tcp 1040 ------- 14 0.0 3.0 26 41
- 0.502677 0 1 tcp 1040 ------- 14 0.0 3.0 30 46
r 0.505776 2 3 tcp 1040 ------- 14 0.0 3.0 16 29
+ 0.505776 3 2 ack 40 ------- 14 3.0 0.0 16 47
- 0.505776 3 2 ack 40 ------- 14 3.0 0.0 16 47
r 0.506037 1 2 tcp 1040 ------- 14 0.0 3.0 18 32
+ 0.506037 2 3 tcp 1040 ------- 14 0.0 3.0 18 32
- 0.506037 2 3 tcp 1040 ------- 14 0.0 3.0 18 32
r 0.507131 0 1 tcp 1040 ------- 14 0.0 3.0 27 42
+ 0.507131 1 2 tcp 1040 ------- 14 0.0 3.0 27 42
- 0.507131 1 2 tcp 1040 ------- 14 0.0 3.0 21 36
r 0.507963 0 1 tcp 1040 ------- 14 0.0 3.0 28 43
+ 0.507963 1 2 tcp 1040 ------- 14 0.0 3.0 28 43
r 0.510261 3 2 ack 40 ------- 14 3.0 0.0 15 44
+ 0.510261 2 1 ack 40 ------- 14 3.0 0.0 15 44
- 0.510261 2 1 ack 40 ------- 14 3.0 0.0 15 44
r 0.511323 2 3 tcp 1040 ------- 14 0.0 3.0 17 31
+ 0.511323 3 2 ack 40 ------- 14 3.0 0.0 17 48
- 0.511323 3 2 ack 40 ------- 14 3.0 0.0 17 48
r 0.511584 1 2 tcp 1040 ------- 14 0.0 3.0 19 34
+ 0.511584 2 3 tcp 1040 ------- 14 0.0 3.0 19 34
- 0.511584 2 3 tcp 1040 ------- 14 0.0 3.0 19 34
r 0.512677 0 1 tcp 1040 ------- 14 0.0 3.0 29 45
+ 0.512677 1 2 tcp 1040 ------- 14 0.0 3.0 29 45
- 0.512677 1 2 tcp 1040 ------- 14 0.0 3.0 22 37
r 0.513509 0 1 tcp 1040 ------- 14 0.0 3.0 30 46
+ 0.513509 1 2 tcp 1040 ------- 14 0.0 3.0 30 46
r 0.515808 3 2 ack 40 ------- 14 3.0 0.0 16 47
+ 0.515808 2 1 ack 40 ------- 14 3.0 0.0 16 47
- 0.515808 2 1 ack 40 ------- 14 3.0 0.0 16 47
r 0.516869 2 3 tcp 1040 ------- 14 0.0 3.0 18 32
+ 0.516869 3 2 ack 40 ------- 14 3.0 0.0 18 49
- 0.516869 3 2 ack 40 ------- 14 3.0 0.0 18 49
r 0.517131 1 2 tcp 1040 ------- 14 0.0 3.0 20 35
+ 0.517131 2 3 tcp 1040 ------- 14 0.0 3.0 20 35
- 0.517131 2 3 tcp 1040 ------- 14 0.0 3.0 20 35
- 0.518224 1 2 tcp 1040 ------- 14 0.0 3.0 23 38
r 0.520475 2 1 ack 40 ------- 14 3.0 0.0 15 44
+ 0.520475 1 0 ack 40 ------- 14 3.0 0.0 15 44
- 0.520475 1 0 ack 40 ------- 14 3.0 0.0 15 44
r 0.521355 3 2 ack 40 ------- 14 3.0 0.0 17 48
+ 0.521355 2 1 ack 40 ------- 14 3.0 0.0 17 48
- 0.521355 2 1 ack 40 ------- 14 3.0 0.0 17 48
r 0.522416 2 3 tcp 1040 ------- 14 0.0 3.0 19 34
+ 0.522416 3 2 ack 40 ------- 14 3.0 0.0 19 50
- 0.522416 3 2 ack 40 ------- 14 3.0 0.0 19 50
r 0.522677 1 2 tcp 1040 ------- 14 0.0 3.0 21 36
+ 0.522677 2 3 tcp 1040 ------- 14 0.0 3.0 21 36
- 0.522677 2 3 tcp 1040 ------- 14 0.0 3.0 21 36
- 0.523771 1 2 tcp 1040 ------- 14 0.0 3.0 24 39
r 0.526021 2 1 ack 40 ------- 14 3.0 0.0 16 47
+ 0.526021 1 0 ack 40 ------- 14 3.0 0.0 16 47
- 0.526021 1 0 ack 40 ------- 14 3.0 0.0 16 47
r 0.526901 3 2 ack 40 ------- 14 3.0 0.0 18 49
+ 0.526901 2 1 ack 40 ------- 14 3.0 0.0 18 49
- 0.526901 2 1 ack 40 ------- 14 3.0 0.0 18 49
r 0.527963 2 3 tcp 1040 ------- 14 0.0 3.0 20 35
+ 0.527963 3 2 ack 40 ------- 14 3.0 0.0 20 51
- 0.527963 3 2 ack 40 ------- 14 3.0 0.0 20 51
r 0.528224 1 2 tcp 1040 ------- 14 0.0 3.0 22 37
+ 0.528224 2 3 tcp 1040 ------- 14 0.0 3.0 22 37
- 0.528224 2 3 tcp 1040 ------- 14 0.0 3.0 22 37
- 0.529317 1 2 tcp 1040 ------- 14 0.0 3.0 25 40
r 0.530507 1 0 ack 40 ------- 14 3.0 0.0 15 44
+ 0.530507 0 1 tcp 1040 ------- 14 0.0 3.0 31 52
- 0.530507 0 1 tcp 1040 ------- 14 0.0 3.0 31 52
+ 0.530507 0 1 tcp 1040 ------- 14 0.0 3.0 32 53
- 0.531339 0 1 tcp 1040 ------- 14 0.0 3.0 32 53
r 0.531568 2 1 ack 40 ------- 14 3.0 0.0 17 48
+ 0.531568 1 0 ack 40 ------- 14 3.0 0.0 17 48
- 0.531568 1 0 ack 40 ------- 14 3.0 0.0 17 48
r 0.532448 3 2 ack 40 ------- 14 3.0 0.0 19 50
+ 0.532448 2 1 ack 40 ------- 14 3.0 0.0 19 50
- 0.532448 2 1 ack 40 ------- 14 3.0 0.0 19 50
r 0.533509 2 3 tcp 1040 ------- 14 0.0 3.0 21 36
+ 0.533509 3 2 ack 40 ------- 14 3.0 0.0 21 54
- 0.533509 3 2 ack 40 ------- 14 3.0 0.0 21 54
r 0.533771 1 2 tcp 1040 ------- 14 0.0 3.0 23 38
+ 0.533771 2 3 tcp 1040 ------- 14 0.0 3.0 23 38
- 0.533771 2 3 tcp 1040 ------- 14 0.0 3.0 23 38
- 0.534864 1 2 tcp 1040 ------- 14 0.0 3.0 26 41
r 0.536053 1 0 ack 40 ------- 14 3.0 0.0 16 47
+ 0.536053 0 1 tcp 1040 ------- 14 0.0 3.0 33 55
- 0.536053 0 1 tcp 1040 ------- 14 0.0 3.0 33 55
+ 0.536053 0 1 tcp 1040 ------- 14 0.0 3.0 34 56
- 0.536885 0 1 tcp 1040 ------- 14 0.0 3.0 34 56
r 0.537115 2 1 ack 40 ------- 14 3.0 0.0 18 49
+ 0.537115 1 0 ack 40 ------- 14 3.0 0.0 18 49
- 0.537115 1 0 ack 40 ------- 14 3.0 0.0 18 49
r 0.537995 3 2 ack 40 ------- 14 3.0 0.0 20 51
+ 0.537995 2 1 ack 40 ------- 14 3.0 0.0 20 51
- 0.537995 2 1 ack 40 ------- 14 3.0 0.0 20 51
r 0.539056 2 3 tcp 1040 ------- 14 0.0 3.0 22 37
+ 0.539056 3 2 ack 40 ------- 14 3.0 0.0 22 57
- 0.539056 3 2 ack 40 ------- 14 3.0 0.0 22 57
r 0.539317 1 2 tcp 1040 ------- 14 0.0 3.0 24 39
+ 0.539317 2 3 tcp 1040 ------- 14 0.0 3.0 24 39
- 0.539317 2 3 tcp 1040 ------- 14 0.0 3.0 24 39
- 0.540411 1 2 tcp 1040 ------- 14 0.0 3.0 27 42
r 0.541339 0 1 tcp 1040 ------- 14 0.0 3.0 31 52
+ 0.541339 1 2 tcp 1040 ------- 14 0.0 3.0 31 52
r 0.5416 1 0 ack 40 ------- 14 3.0 0.0 17 48
+ 0.5416 0 1 tcp 1040 ------- 14 0.0 3.0 35 58
- 0.5416 0 1 tcp 1040 ------- 14 0.0 3.0 35 58
+ 0.5416 0 1 tcp 1040 ------- 14 0.0 3.0 36 59
r 0.542171 0 1 tcp 1040 ------- 14 0.0 3.0 32 53
+ 0.542171 1 2 tcp 1040 ------- 14 0.0 3.0 32 53
- 0.542432 0 1 tcp 1040 ------- 14 0.0 3.0 36 59
r 0.542661 2 1 ack 40 ------- 14 3.0 0.0 19 50
+ 0.542661 1 0 ack 40 ------- 14 3.0 0.0 19 50
- 0.542661 1 0 ack 40 ------- 14 3.0 0.0 19 50
r 0.543541 3 2 ack 40 ------- 14 3.0 0.0 21 54
+ 0.543541 2 1 ack 40 ------- 14 3.0 0.0 21 54
- 0.543541 2 1 ack 40 ------- 14 3.0 0.0 21 54
r 0.544603 2 3 tcp 1040 ------- 14 0.0 3.0 23 38
+ 0.544603 3 2 ack 40 ------- 14 3.0 0.0 23 60
- 0.544603 3 2 ack 40 ------- 14 3.0 0.0 23 60
r 0.544864 1 2 tcp 1040 ------- 14 0.0 3.0 25 40
+ 0.544864 2 3 tcp 1040 ------- 14 0.0 3.0 25 40
- 0.544864 2 3 tcp 1040 ------- 14 0.0 3.0 25 40
- 0.545957 1 2 tcp 1040 ------- 14 0.0 3.0 28 43
r 0.546885 0 1 tcp 1040 ------- 14 0.0 3.0 33 55
+ 0.546885 1 2 tcp 1040 ------- 14 0.0 3.0 33 55
r 0.547147 1 0 ack 40 ------- 14 3.0 0.0 18 49
+ 0.547147 0 1 tcp 1040 ------- 14 0.0 3.0 37 61
- 0.547147 0 1 tcp 1040 ------- 14 0.0 3.0 37 61
+ 0.547147 0 1 tcp 1040 ------- 14 0.0 3.0 38 62
r 0.547717 0 1 tcp 1040 ------- 14 0.0 3.0 34 56
+ 0.547717 1 2 tcp 1040 ------- 14 0.0 3.0 34 56
- 0.547979 0 1 tcp 1040 ------- 14 0.0 3.0 38 62
r 0.548208 2 1 ack 40 ------- 14 3.0 0.0 20 51
+ 0.548208 1 0 ack 40 ------- 14 3.0 0.0 20 51
- 0.548208 1 0 ack 40 ------- 14 3.0 0.0 20 51
r 0.549088 3 2 ack 40 ------- 14 3.0 0.0 22 57
+ 0.549088 2 1 ack 40 ------- 14 3.0 0.0 22 57
- 0.549088 2 1 ack 40 ------- 14 3.0 0.0 22 57
r 0.550149 2 3 tcp 1040 ------- 14 0.0 3.0 24 39
+ 0.550149 3 2 ack 40 ------- 14 3.0 0.0 24 63
- 0.550149 3 2 ack 40 ------- 14 3.0 0.0 24 63
r 0.550411 1 2 tcp 1040 ------- 14 0.0 3.0 26 41
+ 0.550411 2 3 tcp 1040 ------- 14 0.0 3.0 26 41
- 0.550411 2 3 tcp 1040 ------- 14 0.0 3.0 26 41
- 0.551504 1 2 tcp 1040 ------- 14 0.0 3.0 29 45
r 0.552432 0 1 tcp 1040 ------- 14 0.0 3.0 35 58
+ 0.552432 1 2 tcp 1040 ------- 14 0.0 3.0 35 58
r 0.552693 1 0 ack 40 ------- 14 3.0 0.0 19 50
+ 0.552693 0 1 tcp 1040 ------- 14 0.0 3.0 39 64
- 0.552693 0 1 tcp 1040 ------- 14 0.0 3.0 39 64
r 0.553264 0 1 tcp 1040 ------- 14 0.0 3.0 36 59
+ 0.553264 1 2 tcp 1040 ------- 14 0.0 3.0 36 59
r 0.553755 2 1 ack 40 ------- 14 3.0 0.0 21 54
+ 0.553755 1 0 ack 40 ------- 14 3.0 0.0 21 54
- 0.553755 1 0 ack 40 ------- 14 3.0 0.0 21 54
r 0.554635 3 2 ack 40 ------- 14 3.0 0.0 23 60
+ 0.554635 2 1 ack 40 ------- 14 3.0 0.0 23 60
- 0.554635 2 1 ack 40 ------- 14 3.0 0.0 23 60
r 0.555696 2 3 tcp 1040 ------- 14 0.0 3.0 25 40
+ 0.555696 3 2 ack 40 ------- 14 3.0 0.0 25 65
- 0.555696 3 2 ack 40 ------- 14 3.0 0.0 25 65
r 0.555957 1 2 tcp 1040 ------- 14 0.0 3.0 27 42
+ 0.555957 2 3 tcp 1040 ------- 14 0.0 3.0 27 42
- 0.555957 2 3 tcp 1040 ------- 14 0.0 3.0 27 42
- 0.557051 1 2 tcp 1040 ------- 14 0.0 3.0 30 46
r 0.557979 0 1 tcp 1040 ------- 14 0.0 3.0 37 61
+ 0.557979 1 2 tcp 1040 ------- 14 0.0 3.0 37 61
r 0.55824 1 0 ack 40 ------- 14 3.0 0.0 20 51
+ 0.55824 0 1 tcp 1040 ------- 14 0.0 3.0 40 66
- 0.55824 0 1 tcp 1040 ------- 14 0.0 3.0 40 66
r 0.558811 0 1 tcp 1040 ------- 14 0.0 3.0 38 62
+ 0.558811 1 2 tcp 1040 ------- 14 0.0 3.0 38 62
r 0.559301 2 1 ack 40 ------- 14 3.0 0.0 22 57
+ 0.559301 1 0 ack 40 ------- 14 3.0 0.0 22 57
- 0.559301 1 0 ack 40 ------- 14 3.0 0.0 22 57
r 0.560181 3 2 ack 40 ------- 14 3.0 0.0 24 63
+ 0.560181 2 1 ack 40 ------- 14 3.0 0.0 24 63
- 0.560181 2 1 ack 40 ------- 14 3.0 0.0 24 63
r 0.561243 2 3 tcp 1040 ------- 14 0.0 3.0 26 41
+ 0.561243 3 2 ack 40 ------- 14 3.0 0.0 26 67
- 0.561243 3 2 ack 40 ------- 14 3.0 0.0 26 67
r 0.561504 1 2 tcp 1040 ------- 14 0.0 3.0 28 43
+ 0.561504 2 3 tcp 1040 ------- 14 0.0 3.0 28 43
- 0.561504 2 3 tcp 1040 ------- 14 0.0 3.0 28 43
- 0.562597 1 2 tcp 1040 ------- 14 0.0 3.0 31 52
r 0.563525 0 1 tcp 1040 ------- 14 0.0 3.0 39 64
+ 0.563525 1 2 tcp 1040 ------- 14 0.0 3.0 39 64
r 0.563787 1 0 ack 40 ------- 14 3.0 0.0 21 54
+ 0.563787 0 1 tcp 1040 ------- 14 0.0 3.0 41 68
- 0.563787 0 1 tcp 1040 ------- 14 0.0 3.0 41 68
r 0.564848 2 1 ack 40 ------- 14 3.0 0.0 23 60
+ 0.564848 1 0 ack 40 ------- 14 3.0 0.0 23 60
- 0.564848 1 0 ack 40 ------- 14 3.0 0.0 23 60
r 0.565728 3 2 ack 40 ------- 14 3.0 0.0 25 65
+ 0.565728 2 1 ack 40 ------- 14 3.0 0.0 25 65
- 0.565728 2 1 ack 40 ------- 14 3.0 0.0 25 65
r 0.566789 2 3 tcp 1040 ------- 14 0.0 3.0 27 42
+ 0.566789 3 2 ack 40 ------- 14 3.0 0.0 27 69
- 0.566789 3 2 ack 40 ------- 14 3.0 0.0 27 69
r 0.567051 1 2 tcp 1040 ------- 14 0.0 3.0 29 45
+ 0.567051 2 3 tcp 1040 ------- 14 0.0 3.0 29 45
- 0.567051 2 3 tcp 1040 ------- 14 0.0 3.0 29 45
- 0.568144 1 2 tcp 1040 ------- 14 0.0 3.0 32 53
r 0.569072 0 1 tcp 1040 ------- 14 0.0 3.0 40 66
+ 0.569072 1 2 tcp 1040 ------- 14 0.0 3.0 40 66
r 0.569333 1 0 ack 40 ------- 14 3.0 0.0 22 57
+ 0.569333 0 1 tcp 1040 ------- 14 0.0 3.0 42 70
- 0.569333 0 1 tcp 1040 ------- 14 0.0 3.0 42 70
r 0.570395 2 1 ack 40 ------- 14 3.0 0.0 24 63
+ 0.570395 1 0 ack 40 ------- 14 3.0 0.0 24 63
- 0.570395 1 0 ack 40 ------- 14 3.0 0.0 24 63
r 0.571275 3 2 ack 40 ------- 14 3.0 0.0 26 67
+ 0.571275 2 1 ack 40 ------- 14 3.0 0.0 26 67
- 0.571275 2 1 ack 40 ------- 14 3.0 0.0 26 67
r 0.572336 2 3 tcp 1040 ------- 14 0.0 3.0 28 43
+ 0.572336 3 2 ack 40 ------- 14 3.0 0.0 28 71
- 0.572336 3 2 ack 40 ------- 14 3.0 0.0 28 71
r 0.572597 1 2 tcp 1040 ------- 14 0.0 3.0 30 46
+ 0.572597 2 3 tcp 1040 ------- 14 0.0 3.0 30 46
- 0.572597 2 3 tcp 1040 ------- 14 0.0 3.0 30 46
- 0.573691 1 2 tcp 1040 ------- 14 0.0 3.0 33 55
r 0.574619 0 1 tcp 1040 ------- 14 0.0 3.0 41 68
+ 0.574619 1 2 tcp 1040 ------- 14 0.0 3.0 41 68
r 0.57488 1 0 ack 40 ------- 14 3.0 0.0 23 60
+ 0.57488 0 1 tcp 1040 ------- 14 0.0 3.0 43 72
- 0.57488 0 1 tcp 1040 ------- 14 0.0 3.0 43 72
r 0.575941 2 1 ack 40 ------- 14 3.0 0.0 25 65
+ 0.575941 1 0 ack 40 ------- 14 3.0 0.0 25 65
- 0.575941 1 0 ack 40 ------- 14 3.0 0.0 25 65
r 0.576821 3 2 ack 40 ------- 14 3.0 0.0 27 69
+ 0.576821 2 1 ack 40 ------- 14 3.0 0.0 27 69
- 0.576821 2 1 ack 40 ------- 14 3.0 0.0 27 69
r 0.577883 2 3 tcp 1040 ------- 14 0.0 3.0 29 45
+ 0.577883 3 2 ack 40 ------- 14 3.0 0.0 29 73
- 0.577883 3 2 ack 40 ------- 14 3.0 0.0 29 73
r 0.578144 1 2 tcp 1040 ------- 14 0.0 3.0 31 52
+ 0.578144 2 3 tcp 1040 ------- 14 0.0 3.0 31 52
- 0.578144 2 3 tcp 1040 ------- 14 0.0 3.0 31 52
- 0.579237 1 2 tcp 1040 ------- 14 0.0 3.0 34 56
r 0.580165 0 1 tcp 1040 ------- 14 0.0 3.0 42 70
+ 0.580165 1 2 tcp 1040 ------- 14 0.0 3.0 42 70
r 0.580427 1 0 ack 40 ------- 14 3.0 0.0 24 63
+ 0.580427 0 1 tcp 1040 ------- 14 0.0 3.0 44 74
- 0.580427 0 1 tcp 1040 ------- 14 0.0 3.0 44 74
r 0.581488 2 1 ack 40 ------- 14 3.0 0.0 26 67
+ 0.581488 1 0 ack 40 ------- 14 3.0 0.0 26 67
- 0.581488 1 0 ack 40 ------- 14 3.0 0.0 26 67
r 0.582368 3 2 ack 40 ------- 14 3.0 0.0 28 71
+ 0.582368 2 1 ack 40 ------- 14 3.0 0.0 28 71
- 0.582368 2 1 ack 40 ------- 14 3.0 0.0 28 71
r 0.583429 2 3 tcp 1040 ------- 14 0.0 3.0 30 46
+ 0.583429 3 2 ack 40 ------- 14 3.0 0.0 30 75
- 0.583429 3 2 ack 40 ------- 14 3.0 0.0 30 75
r 0.583691 1 2 tcp 1040 ------- 14 0.0 3.0 32 53
+ 0.583691 2 3 tcp 1040 ------- 14 0.0 3.0 32 53
- 0.583691 2 3 tcp 1040 ------- 14 0.0 3.0 32 53
- 0.584784 1 2 tcp 1040 ------- 14 0.0 3.0 35 58
r 0.585712 0 1 tcp 1040 ------- 14 0.0 3.0 43 72
+ 0.585712 1 2 tcp 1040 ------- 14 0.0 3.0 43 72
r 0.585973 1 0 ack 40 ------- 14 3.0 0.0 25 65
+ 0.585973 0 1 tcp 1040 ------- 14 0.0 3.0 45 76
- 0.585973 0 1 tcp 1040 ------- 14 0.0 3.0 45 76
r 0.587035 2 1 ack 40 ------- 14 3.0 0.0 27 69
+ 0.587035 1 0 ack 40 ------- 14 3.0 0.0 27 69
- 0.587035 1 0 ack 40 ------- 14 3.0 0.0 27 69
r 0.587915 3 2 ack 40 ------- 14 3.0 0.0 29 73
+ 0.587915 2 1 ack 40 ------- 14 3.0 0.0 29 73
- 0.587915 2 1 ack 40 ------- 14 3.0 0.0 29 73
r 0.588976 2 3 tcp 1040 ------- 14 0.0 3.0 31 52
+ 0.588976 3 2 ack 40 ------- 14 3.0 0.0 31 77
- 0.588976 3 2 ack 40 ------- 14 3.0 0.0 31 77
r 0.589237 1 2 tcp 1040 ------- 14 0.0 3.0 33 55
+ 0.589237 2 3 tcp 1040 ------- 14 0.0 3.0 33 55
- 0.589237 2 3 tcp 1040 ------- 14 0.0 3.0 33 55
- 0.590331 1 2 tcp 1040 ------- 14 0.0 3.0 36 59
r 0.591259 0 1 tcp 1040 ------- 14 0.0 3.0 44 74
+ 0.591259 1 2 tcp 1040 ------- 14 0.0 3.0 44 74
r 0.59152 1 0 ack 40 ------- 14 3.0 0.0 26 67
+ 0.59152 0 1 tcp 1040 ------- 14 0.0 3.0 46 78
- 0.59152 0 1 tcp 1040 ------- 14 0.0 3.0 46 78
r 0.592581 2 1 ack 40 ------- 14 3.0 0.0 28 71
+ 0.592581 1 0 ack 40 ------- 14 3.0 0.0 28 71
- 0.592581 1 0 ack 40 ------- 14 3.0 0.0 28 71
r 0.593461 3 2 ack 40 ------- 14 3.0 0.0 30 75
+ 0.593461 2 1 ack 40 ------- 14 3.0 0.0 30 75
- 0.593461 2 1 ack 40 ------- 14 3.0 0.0 30 75
r 0.594523 2 3 tcp 1040 ------- 14 0.0 3.0 32 53
+ 0.594523 3 2 ack 40 ------- 14 3.0 0.0 32 79
- 0.594523 3 2 ack 40 ------- 14 3.0 0.0 32 79
r 0.594784 1 2 tcp 1040 ------- 14 0.0 3.0 34 56