+ 0 0 1 cbr 1000 ------- 14 0.0 3.0 0 0
- 0 0 1 cbr 1000 ------- 14 0.0 3.0 0 0
+ 0.008 0 1 cbr 1000 ------- 14 0.0 3.0 1 1
- 0.008 0 1 cbr 1000 ------- 14 0.0 3.0 1 1
r 0.015333 0 1 cbr 1000 ------- 14 0.0 3.0 0 0
+ 0.015333 1 2 cbr 1000 ------- 14 0.0 3.0 0 0
- 0.015333 1 2 cbr 1000 ------- 14 0.0 3.0 0 0
+ 0.016 0 1 cbr 1000 ------- 14 0.0 3.0 2 2
- 0.016 0 1 cbr 1000 ------- 14 0.0 3.0 2 2
r 0.023333 0 1 cbr 1000 ------- 14 0.0 3.0 1 1
+ 0.023333 1 2 cbr 1000 ------- 14 0.0 3.0 1 1
- 0.023333 1 2 cbr 1000 ------- 14 0.0 3.0 1 1
+ 0.024 0 1 cbr 1000 ------- 14 0.0 3.0 3 3
- 0.024 0 1 cbr 1000 ------- 14 0.0 3.0 3 3
r 0.030667 1 2 cbr 1000 ------- 14 0.0 3.0 0 0
+ 0.030667 2 3 cbr 1000 ------- 14 0.0 3.0 0 0
- 0.030667 2 3 cbr 1000 ------- 14 0.0 3.0 0 0
r 0.031333 0 1 cbr 1000 ------- 14 0.0 3.0 2 2
+ 0.031333 1 2 cbr 1000 ------- 14 0.0 3.0 2 2
- 0.031333 1 2 cbr 1000 ------- 14 0.0 3.0 2 2
+ 0.032 0 1 cbr 1000 ------- 14 0.0 3.0 4 4
- 0.032 0 1 cbr 1000 ------- 14 0.0 3.0 4 4
r 0.038667 1 2 cbr 1000 ------- 14 0.0 3.0 1 1
+ 0.038667 2 3 cbr 1000 ------- 14 0.0 3.0 1 1
- 0.038667 2 3 cbr 1000 ------- 14 0.0 3.0 1 1
r 0.039333 0 1 cbr 1000 ------- 14 0.0 3.0 3 3
+ 0.039333 1 2 cbr 1000 ------- 14 0.0 3.0 3 3
- 0.039333 1 2 cbr 1000 ------- 14 0.0 3.0 3 3
+ 0.04 0 1 cbr 1000 ------- 14 0.0 3.0 5 5
- 0.04 0 1 cbr 1000 ------- 14 0.0 3.0 5 5
r 0.046 2 3 cbr 1000 ------- 14 0.0 3.0 0 0
r 0.046667 1 2 cbr 1000 ------- 14 0.0 3.0 2 2
+ 0.046667 2 3 cbr 1000 ------- 14 0.0 3.0 2 2
- 0.046667 2 3 cbr 1000 ------- 14 0.0 3.0 2 2
r 0.047333 0 1 cbr 1000 ------- 14 0.0 3.0 4 4
+ 0.047333 1 2 cbr 1000 ------- 14 0.0 3.0 4 4
- 0.047333 1 2 cbr 1000 ------- 14 0.0 3.0 4 4
+ 0.048 0 1 cbr 1000 ------- 14 0.0 3.0 6 6
- 0.048 0 1 cbr 1000 ------- 14 0.0 3.0 6 6
r 0.054 2 3 cbr 1000 ------- 14 0.0 3.0 1 1
r 0.054667 1 2 cbr 1000 ------- 14 0.0 3.0 3 3
+ 0.054667 2 3 cbr 1000 ------- 14 0.0 3.0 3 3
- 0.054667 2 3 cbr 1000 ------- 14 0.0 3.0 3 3
r 0.055333 0 1 cbr 1000 ------- 14 0.0 3.0 5 5
+ 0.055333 1 2 cbr 1000 ------- 14 0.0 3.0 5 5
- 0.055333 1 2 cbr 1000 ------- 14 0.0 3.0 5 5
+ 0.056 0 1 cbr 1000 ------- 14 0.0 3.0 7 7
- 0.056 0 1 cbr 1000 ------- 14 0.0 3.0 7 7
r 0.062 2 3 cbr 1000 ------- 14 0.0 3.0 2 2
r 0.062667 1 2 cbr 1000 ------- 14 0.0 3.0 4 4
+ 0.062667 2 3 cbr 1000 ------- 14 0.0 3.0 4 4
- 0.062667 2 3 cbr 1000 ------- 14 0.0 3.0 4 4
r 0.063333 0 1 cbr 1000 ------- 14 0.0 3.0 6 6
+ 0.063333 1 2 cbr 1000 ------- 14 0.0 3.0 6 6
- 0.063333 1 2 cbr 1000 ------- 14 0.0 3.0 6 6
+ 0.064 0 1 cbr 1000 ------- 14 0.0 3.0 8 8
- 0.064 0 1 cbr 1000 ------- 14 0.0 3.0 8 8
r 0.07 2 3 cbr 1000 ------- 14 0.0 3.0 3 3
r 0.070667 1 2 cbr 1000 ------- 14 0.0 3.0 5 5
+ 0.070667 2 3 cbr 1000 ------- 14 0.0 3.0 5 5
- 0.070667 2 3 cbr 1000 ------- 14 0.0 3.0 5 5
r 0.071333 0 1 cbr 1000 ------- 14 0.0 3.0 7 7
+ 0.071333 1 2 cbr 1000 ------- 14 0.0 3.0 7 7
- 0.071333 1 2 cbr 1000 ------- 14 0.0 3.0 7 7
+ 0.072 0 1 cbr 1000 ------- 14 0.0 3.0 9 9
- 0.072 0 1 cbr 1000 ------- 14 0.0 3.0 9 9
r 0.078 2 3 cbr 1000 ------- 14 0.0 3.0 4 4
r 0.078667 1 2 cbr 1000 ------- 14 0.0 3.0 6 6
+ 0.078667 2 3 cbr 1000 ------- 14 0.0 3.0 6 6
- 0.078667 2 3 cbr 1000 ------- 14 0.0 3.0 6 6
r 0.079333 0 1 cbr 1000 ------- 14 0.0 3.0 8 8
+ 0.079333 1 2 cbr 1000 ------- 14 0.0 3.0 8 8
- 0.079333 1 2 cbr 1000 ------- 14 0.0 3.0 8 8
+ 0.08 0 1 cbr 1000 ------- 14 0.0 3.0 10 10
- 0.08 0 1 cbr 1000 ------- 14 0.0 3.0 10 10
r 0.086 2 3 cbr 1000 ------- 14 0.0 3.0 5 5
r 0.086667 1 2 cbr 1000 ------- 14 0.0 3.0 7 7
+ 0.086667 2 3 cbr 1000 ------- 14 0.0 3.0 7 7
- 0.086667 2 3 cbr 1000 ------- 14 0.0 3.0 7 7
r 0.087333 0 1 cbr 1000 ------- 14 0.0 3.0 9 9
+ 0.087333 1 2 cbr 1000 ------- 14 0.0 3.0 9 9
- 0.087333 1 2 cbr 1000 ------- 14 0.0 3.0 9 9
+ 0.088 0 1 cbr 1000 ------- 14 0.0 3.0 11 11
- 0.088 0 1 cbr 1000 ------- 14 0.0 3.0 11 11
r 0.094 2 3 cbr 1000 ------- 14 0.0 3.0 6 6
r 0.094667 1 2 cbr 1000 ------- 14 0.0 3.0 8 8
+ 0.094667 2 3 cbr 1000 ------- 14 0.0 3.0 8 8
- 0.094667 2 3 cbr 1000 ------- 14 0.0 3.0 8 8
r 0.095333 0 1 cbr 1000 ------- 14 0.0 3.0 10 10
+ 0.095333 1 2 cbr 1000 ------- 14 0.0 3.0 10 10
- 0.095333 1 2 cbr 1000 ------- 14 0.0 3.0 10 10
+ 0.096 0 1 cbr 1000 ------- 14 0.0 3.0 12 12
- 0.096 0 1 cbr 1000 ------- 14 0.0 3.0 12 12
+ 0.1 4 1 cbr 1000 ------- 56 4.0 5.0 0 13
- 0.1 4 1 cbr 1000 ------- 56 4.0 5.0 0 13
r 0.102 2 3 cbr 1000 ------- 14 0.0 3.0 7 7
r 0.102667 1 2 cbr 1000 ------- 14 0.0 3.0 9 9
+ 0.102667 2 3 cbr 1000 ------- 14 0.0 3.0 9 9
- 0.102667 2 3 cbr 1000 ------- 14 0.0 3.0 9 9
r 0.103333 0 1 cbr 1000 ------- 14 0.0 3.0 11 11
+ 0.103333 1 2 cbr 1000 ------- 14 0.0 3.0 11 11
- 0.103333 1 2 cbr 1000 ------- 14 0.0 3.0 11 11
+ 0.104 0 1 cbr 1000 ------- 14 0.0 3.0 13 14
- 0.104 0 1 cbr 1000 ------- 14 0.0 3.0 13 14
+ 0.108 4 1 cbr 1000 ------- 56 4.0 5.0 1 15
- 0.108 4 1 cbr 1000 ------- 56 4.0 5.0 1 15
r 0.11 2 3 cbr 1000 ------- 14 0.0 3.0 8 8
r 0.110667 1 2 cbr 1000 ------- 14 0.0 3.0 10 10
+ 0.110667 2 3 cbr 1000 ------- 14 0.0 3.0 10 10
- 0.110667 2 3 cbr 1000 ------- 14 0.0 3.0 10 10
r 0.111333 0 1 cbr 1000 ------- 14 0.0 3.0 12 12
+ 0.111333 1 2 cbr 1000 ------- 14 0.0 3.0 12 12
- 0.111333 1 2 cbr 1000 ------- 14 0.0 3.0 12 12
+ 0.112 0 1 cbr 1000 ------- 14 0.0 3.0 14 16
- 0.112 0 1 cbr 1000 ------- 14 0.0 3.0 14 16
r 0.115333 4 1 cbr 1000 ------- 56 4.0 5.0 0 13
+ 0.115333 1 2 cbr 1000 ------- 56 4.0 5.0 0 13
+ 0.116 4 1 cbr 1000 ------- 56 4.0 5.0 2 17
- 0.116 4 1 cbr 1000 ------- 56 4.0 5.0 2 17
- 0.116667 1 2 cbr 1000 ------- 56 4.0 5.0 0 13
r 0.118 2 3 cbr 1000 ------- 14 0.0 3.0 9 9
r 0.118667 1 2 cbr 1000 ------- 14 0.0 3.0 11 11
+ 0.118667 2 3 cbr 1000 ------- 14 0.0 3.0 11 11
- 0.118667 2 3 cbr 1000 ------- 14 0.0 3.0 11 11
r 0.119333 0 1 cbr 1000 ------- 14 0.0 3.0 13 14
+ 0.119333 1 2 cbr 1000 ------- 14 0.0 3.0 13 14
+ 0.12 0 1 cbr 1000 ------- 14 0.0 3.0 15 18
- 0.12 0 1 cbr 1000 ------- 14 0.0 3.0 15 18
- 0.122 1 2 cbr 1000 ------- 14 0.0 3.0 13 14
r 0.123333 4 1 cbr 1000 ------- 56 4.0 5.0 1 15
+ 0.123333 1 2 cbr 1000 ------- 56 4.0 5.0 1 15
+ 0.124 4 1 cbr 1000 ------- 56 4.0 5.0 3 19
- 0.124 4 1 cbr 1000 ------- 56 4.0 5.0 3 19
r 0.126 2 3 cbr 1000 ------- 14 0.0 3.0 10 10
r 0.126667 1 2 cbr 1000 ------- 14 0.0 3.0 12 12
+ 0.126667 2 3 cbr 1000 ------- 14 0.0 3.0 12 12
- 0.126667 2 3 cbr 1000 ------- 14 0.0 3.0 12 12
- 0.127333 1 2 cbr 1000 ------- 56 4.0 5.0 1 15
r 0.127333 0 1 cbr 1000 ------- 14 0.0 3.0 14 16
+ 0.127333 1 2 cbr 1000 ------- 14 0.0 3.0 14 16
+ 0.128 0 1 cbr 1000 ------- 14 0.0 3.0 16 20
- 0.128 0 1 cbr 1000 ------- 14 0.0 3.0 16 20
r 0.131333 4 1 cbr 1000 ------- 56 4.0 5.0 2 17
+ 0.131333 1 2 cbr 1000 ------- 56 4.0 5.0 2 17
r 0.132 1 2 cbr 1000 ------- 56 4.0 5.0 0 13
+ 0.132 2 5 cbr 1000 ------- 56 4.0 5.0 0 13
- 0.132 2 5 cbr 1000 ------- 56 4.0 5.0 0 13
+ 0.132 4 1 cbr 1000 ------- 56 4.0 5.0 4 21
- 0.132 4 1 cbr 1000 ------- 56 4.0 5.0 4 21
- 0.132667 1 2 cbr 1000 ------- 14 0.0 3.0 14 16
r 0.134 2 3 cbr 1000 ------- 14 0.0 3.0 11 11
r 0.135333 0 1 cbr 1000 ------- 14 0.0 3.0 15 18
+ 0.135333 1 2 cbr 1000 ------- 14 0.0 3.0 15 18
+ 0.136 0 1 cbr 1000 ------- 14 0.0 3.0 17 22
- 0.136 0 1 cbr 1000 ------- 14 0.0 3.0 17 22
r 0.137333 1 2 cbr 1000 ------- 14 0.0 3.0 13 14
+ 0.137333 2 3 cbr 1000 ------- 14 0.0 3.0 13 14
- 0.137333 2 3 cbr 1000 ------- 14 0.0 3.0 13 14
- 0.138 1 2 cbr 1000 ------- 56 4.0 5.0 2 17
r 0.139333 4 1 cbr 1000 ------- 56 4.0 5.0 3 19
+ 0.139333 1 2 cbr 1000 ------- 56 4.0 5.0 3 19
+ 0.14 4 1 cbr 1000 ------- 56 4.0 5.0 5 23
- 0.14 4 1 cbr 1000 ------- 56 4.0 5.0 5 23
r 0.142 2 3 cbr 1000 ------- 14 0.0 3.0 12 12
r 0.142667 1 2 cbr 1000 ------- 56 4.0 5.0 1 15
+ 0.142667 2 5 cbr 1000 ------- 56 4.0 5.0 1 15
- 0.142667 2 5 cbr 1000 ------- 56 4.0 5.0 1 15
- 0.143333 1 2 cbr 1000 ------- 14 0.0 3.0 15 18
r 0.143333 0 1 cbr 1000 ------- 14 0.0 3.0 16 20
+ 0.143333 1 2 cbr 1000 ------- 14 0.0 3.0 16 20
+ 0.144 0 1 cbr 1000 ------- 14 0.0 3.0 18 24
- 0.144 0 1 cbr 1000 ------- 14 0.0 3.0 18 24
r 0.147333 2 5 cbr 1000 ------- 56 4.0 5.0 0 13
r 0.147333 4 1 cbr 1000 ------- 56 4.0 5.0 4 21
+ 0.147333 1 2 cbr 1000 ------- 56 4.0 5.0 4 21
r 0.148 1 2 cbr 1000 ------- 14 0.0 3.0 14 16
+ 0.148 2 3 cbr 1000 ------- 14 0.0 3.0 14 16
- 0.148 2 3 cbr 1000 ------- 14 0.0 3.0 14 16
+ 0.148 4 1 cbr 1000 ------- 56 4.0 5.0 6 25
- 0.148 4 1 cbr 1000 ------- 56 4.0 5.0 6 25
- 0.148667 1 2 cbr 1000 ------- 56 4.0 5.0 3 19
r 0.151333 0 1 cbr 1000 ------- 14 0.0 3.0 17 22
+ 0.151333 1 2 cbr 1000 ------- 14 0.0 3.0 17 22
+ 0.152 0 1 cbr 1000 ------- 14 0.0 3.0 19 26
- 0.152 0 1 cbr 1000 ------- 14 0.0 3.0 19 26
r 0.152667 2 3 cbr 1000 ------- 14 0.0 3.0 13 14
r 0.153333 1 2 cbr 1000 ------- 56 4.0 5.0 2 17
+ 0.153333 2 5 cbr 1000 ------- 56 4.0 5.0 2 17
- 0.153333 2 5 cbr 1000 ------- 56 4.0 5.0 2 17
- 0.154 1 2 cbr 1000 ------- 14 0.0 3.0 16 20
r 0.155333 4 1 cbr 1000 ------- 56 4.0 5.0 5 23
+ 0.155333 1 2 cbr 1000 ------- 56 4.0 5.0 5 23
+ 0.156 4 1 cbr 1000 ------- 56 4.0 5.0 7 27
- 0.156 4 1 cbr 1000 ------- 56 4.0 5.0 7 27
r 0.158 2 5 cbr 1000 ------- 56 4.0 5.0 1 15
r 0.158667 1 2 cbr 1000 ------- 14 0.0 3.0 15 18
+ 0.158667 2 3 cbr 1000 ------- 14 0.0 3.0 15 18
- 0.158667 2 3 cbr 1000 ------- 14 0.0 3.0 15 18
- 0.159333 1 2 cbr 1000 ------- 56 4.0 5.0 4 21
r 0.159333 0 1 cbr 1000 ------- 14 0.0 3.0 18 24
+ 0.159333 1 2 cbr 1000 ------- 14 0.0 3.0 18 24
+ 0.16 0 1 cbr 1000 ------- 14 0.0 3.0 20 28
- 0.16 0 1 cbr 1000 ------- 14 0.0 3.0 20 28
r 0.163333 2 3 cbr 1000 ------- 14 0.0 3.0 14 16
r 0.163333 4 1 cbr 1000 ------- 56 4.0 5.0 6 25
+ 0.163333 1 2 cbr 1000 ------- 56 4.0 5.0 6 25
r 0.164 1 2 cbr 1000 ------- 56 4.0 5.0 3 19
+ 0.164 2 5 cbr 1000 ------- 56 4.0 5.0 3 19
- 0.164 2 5 cbr 1000 ------- 56 4.0 5.0 3 19
+ 0.164 4 1 cbr 1000 ------- 56 4.0 5.0 8 29
- 0.164 4 1 cbr 1000 ------- 56 4.0 5.0 8 29
- 0.164667 1 2 cbr 1000 ------- 14 0.0 3.0 17 22
r 0.167333 0 1 cbr 1000 ------- 14 0.0 3.0 19 26
+ 0.167333 1 2 cbr 1000 ------- 14 0.0 3.0 19 26
+ 0.168 0 1 cbr 1000 ------- 14 0.0 3.0 21 30
- 0.168 0 1 cbr 1000 ------- 14 0.0 3.0 21 30
r 0.168667 2 5 cbr 1000 ------- 56 4.0 5.0 2 17
r 0.169333 1 2 cbr 1000 ------- 14 0.0 3.0 16 20
+ 0.169333 2 3 cbr 1000 ------- 14 0.0 3.0 16 20
- 0.169333 2 3 cbr 1000 ------- 14 0.0 3.0 16 20
- 0.17 1 2 cbr 1000 ------- 56 4.0 5.0 5 23
r 0.171333 4 1 cbr 1000 ------- 56 4.0 5.0 7 27
+ 0.171333 1 2 cbr 1000 ------- 56 4.0 5.0 7 27
+ 0.172 4 1 cbr 1000 ------- 56 4.0 5.0 9 31
- 0.172 4 1 cbr 1000 ------- 56 4.0 5.0 9 31
r 0.174 2 3 cbr 1000 ------- 14 0.0 3.0 15 18
r 0.174667 1 2 cbr 1000 ------- 56 4.0 5.0 4 21
+ 0.174667 2 5 cbr 1000 ------- 56 4.0 5.0 4 21
- 0.174667 2 5 cbr 1000 ------- 56 4.0 5.0 4 21
- 0.175333 1 2 cbr 1000 ------- 14 0.0 3.0 18 24
r 0.175333 0 1 cbr 1000 ------- 14 0.0 3.0 20 28
+ 0.175333 1 2 cbr 1000 ------- 14 0.0 3.0 20 28
+ 0.176 0 1 cbr 1000 ------- 14 0.0 3.0 22 32
- 0.176 0 1 cbr 1000 ------- 14 0.0 3.0 22 32
r 0.179333 2 5 cbr 1000 ------- 56 4.0 5.0 3 19
r 0.179333 4 1 cbr 1000 ------- 56 4.0 5.0 8 29
+ 0.179333 1 2 cbr 1000 ------- 56 4.0 5.0 8 29
r 0.18 1 2 cbr 1000 ------- 14 0.0 3.0 17 22
+ 0.18 2 3 cbr 1000 ------- 14 0.0 3.0 17 22
- 0.18 2 3 cbr 1000 ------- 14 0.0 3.0 17 22
+ 0.18 4 1 cbr 1000 ------- 56 4.0 5.0 10 33
- 0.18 4 1 cbr 1000 ------- 56 4.0 5.0 10 33
- 0.180667 1 2 cbr 1000 ------- 56 4.0 5.0 6 25
r 0.183333 0 1 cbr 1000 ------- 14 0.0 3.0 21 30
+ 0.183333 1 2 cbr 1000 ------- 14 0.0 3.0 21 30
+ 0.184 0 1 cbr 1000 ------- 14 0.0 3.0 23 34
- 0.184 0 1 cbr 1000 ------- 14 0.0 3.0 23 34
r 0.184667 2 3 cbr 1000 ------- 14 0.0 3.0 16 20
r 0.185333 1 2 cbr 1000 ------- 56 4.0 5.0 5 23
+ 0.185333 2 5 cbr 1000 ------- 56 4.0 5.0 5 23
- 0.185333 2 5 cbr 1000 ------- 56 4.0 5.0 5 23
- 0.186 1 2 cbr 1000 ------- 14 0.0 3.0 19 26
r 0.187333 4 1 cbr 1000 ------- 56 4.0 5.0 9 31
+ 0.187333 1 2 cbr 1000 ------- 56 4.0 5.0 9 31
+ 0.188 4 1 cbr 1000 ------- 56 4.0 5.0 11 35
- 0.188 4 1 cbr 1000 ------- 56 4.0 5.0 11 35
r 0.19 2 5 cbr 1000 ------- 56 4.0 5.0 4 21
r 0.190667 1 2 cbr 1000 ------- 14 0.0 3.0 18 24
+ 0.190667 2 3 cbr 1000 ------- 14 0.0 3.0 18 24
- 0.190667 2 3 cbr 1000 ------- 14 0.0 3.0 18 24
- 0.191333 1 2 cbr 1000 ------- 56 4.0 5.0 7 27
r 0.191333 0 1 cbr 1000 ------- 14 0.0 3.0 22 32
+ 0.191333 1 2 cbr 1000 ------- 14 0.0 3.0 22 32
+ 0.192 0 1 cbr 1000 ------- 14 0.0 3.0 24 36
- 0.192 0 1 cbr 1000 ------- 14 0.0 3.0 24 36
r 0.195333 2 3 cbr 1000 ------- 14 0.0 3.0 17 22
r 0.195333 4 1 cbr 1000 ------- 56 4.0 5.0 10 33
+ 0.195333 1 2 cbr 1000 ------- 56 4.0 5.0 10 33
r 0.196 1 2 cbr 1000 ------- 56 4.0 5.0 6 25
+ 0.196 2 5 cbr 1000 ------- 56 4.0 5.0 6 25
- 0.196 2 5 cbr 1000 ------- 56 4.0 5.0 6 25
+ 0.196 4 1 cbr 1000 ------- 56 4.0 5.0 12 37
- 0.196 4 1 cbr 1000 ------- 56 4.0 5.0 12 37
- 0.196667 1 2 cbr 1000 ------- 14 0.0 3.0 20 28
r 0.199333 0 1 cbr 1000 ------- 14 0.0 3.0 23 34
+ 0.199333 1 2 cbr 1000 ------- 14 0.0 3.0 23 34
+ 0.2 6 1 cbr 500 ------- 78 6.0 7.0 0 38
- 0.2 6 1 cbr 500 ------- 78 6.0 7.0 0 38
+ 0.2 0 1 cbr 1000 ------- 14 0.0 3.0 25 39
- 0.2 0 1 cbr 1000 ------- 14 0.0 3.0 25 39
r 0.200667 2 5 cbr 1000 ------- 56 4.0 5.0 5 23
r 0.201333 1 2 cbr 1000 ------- 14 0.0 3.0 19 26
+ 0.201333 2 3 cbr 1000 ------- 14 0.0 3.0 19 26
- 0.201333 2 3 cbr 1000 ------- 14 0.0 3.0 19 26
- 0.202 1 2 cbr 1000 ------- 56 4.0 5.0 8 29
r 0.203333 4 1 cbr 1000 ------- 56 4.0 5.0 11 35
+ 0.203333 1 2 cbr 1000 ------- 56 4.0 5.0 11 35
+ 0.204 4 1 cbr 1000 ------- 56 4.0 5.0 13 40
- 0.204 4 1 cbr 1000 ------- 56 4.0 5.0 13 40
r 0.206 2 3 cbr 1000 ------- 14 0.0 3.0 18 24
r 0.206667 1 2 cbr 1000 ------- 56 4.0 5.0 7 27
+ 0.206667 2 5 cbr 1000 ------- 56 4.0 5.0 7 27
- 0.206667 2 5 cbr 1000 ------- 56 4.0 5.0 7 27
+ 0.206667 6 1 cbr 500 ------- 78 6.0 7.0 1 41
- 0.206667 6 1 cbr 500 ------- 78 6.0 7.0 1 41
- 0.207333 1 2 cbr 1000 ------- 14 0.0 3.0 21 30
r 0.207333 0 1 cbr 1000 ------- 14 0.0 3.0 24 36
+ 0.207333 1 2 cbr 1000 ------- 14 0.0 3.0 24 36
+ 0.208 0 1 cbr 1000 ------- 14 0.0 3.0 26 42
- 0.208 0 1 cbr 1000 ------- 14 0.0 3.0 26 42
r 0.211333 2 5 cbr 1000 ------- 56 4.0 5.0 6 25
r 0.211333 4 1 cbr 1000 ------- 56 4.0 5.0 12 37
+ 0.211333 1 2 cbr 1000 ------- 56 4.0 5.0 12 37
r 0.212 1 2 cbr 1000 ------- 14 0.0 3.0 20 28
+ 0.212 2 3 cbr 1000 ------- 14 0.0 3.0 20 28
- 0.212 2 3 cbr 1000 ------- 14 0.0 3.0 20 28
+ 0.212 4 1 cbr 1000 ------- 56 4.0 5.0 14 43
- 0.212 4 1 cbr 1000 ------- 56 4.0 5.0 14 43
- 0.212667 1 2 cbr 1000 ------- 56 4.0 5.0 9 31
r 0.212667 6 1 cbr 500 ------- 78 6.0 7.0 0 38
+ 0.212667 1 2 cbr 500 ------- 78 6.0 7.0 0 38
+ 0.213333 6 1 cbr 500 ------- 78 6.0 7.0 2 44
- 0.213333 6 1 cbr 500 ------- 78 6.0 7.0 2 44
r 0.215333 0 1 cbr 1000 ------- 14 0.0 3.0 25 39
+ 0.215333 1 2 cbr 1000 ------- 14 0.0 3.0 25 39
+ 0.216 0 1 cbr 1000 ------- 14 0.0 3.0 27 45
- 0.216 0 1 cbr 1000 ------- 14 0.0 3.0 27 45
r 0.216667 2 3 cbr 1000 ------- 14 0.0 3.0 19 26
r 0.217333 1 2 cbr 1000 ------- 56 4.0 5.0 8 29
+ 0.217333 2 5 cbr 1000 ------- 56 4.0 5.0 8 29
- 0.217333 2 5 cbr 1000 ------- 56 4.0 5.0 8 29
- 0.218 1 2 cbr 1000 ------- 14 0.0 3.0 22 32
r 0.219333 6 1 cbr 500 ------- 78 6.0 7.0 1 41
+ 0.219333 1 2 cbr 500 ------- 78 6.0 7.0 1 41
r 0.219333 4 1 cbr 1000 ------- 56 4.0 5.0 13 40
+ 0.219333 1 2 cbr 1000 ------- 56 4.0 5.0 13 40
+ 0.22 6 1 cbr 500 ------- 78 6.0 7.0 3 46
- 0.22 6 1 cbr 500 ------- 78 6.0 7.0 3 46
+ 0.22 4 1 cbr 1000 ------- 56 4.0 5.0 15 47
- 0.22 4 1 cbr 1000 ------- 56 4.0 5.0 15 47
r 0.222 2 5 cbr 1000 ------- 56 4.0 5.0 7 27
r 0.222667 1 2 cbr 1000 ------- 14 0.0 3.0 21 30
+ 0.222667 2 3 cbr 1000 ------- 14 0.0 3.0 21 30
- 0.222667 2 3 cbr 1000 ------- 14 0.0 3.0 21 30
- 0.223333 1 2 cbr 1000 ------- 56 4.0 5.0 10 33
r 0.223333 0 1 cbr 1000 ------- 14 0.0 3.0 26 42
+ 0.223333 1 2 cbr 1000 ------- 14 0.0 3.0 26 42
+ 0.224 0 1 cbr 1000 ------- 14 0.0 3.0 28 48
- 0.224 0 1 cbr 1000 ------- 14 0.0 3.0 28 48
r 0.226 6 1 cbr 500 ------- 78 6.0 7.0 2 44
+ 0.226 1 2 cbr 500 ------- 78 6.0 7.0 2 44
+ 0.226667 6 1 cbr 500 ------- 78 6.0 7.0 4 49
- 0.226667 6 1 cbr 500 ------- 78 6.0 7.0 4 49
r 0.227333 2 3 cbr 1000 ------- 14 0.0 3.0 20 28
r 0.227333 4 1 cbr 1000 ------- 56 4.0 5.0 14 43
+ 0.227333 1 2 cbr 1000 ------- 56 4.0 5.0 14 43
r 0.228 1 2 cbr 1000 ------- 56 4.0 5.0 9 31
+ 0.228 2 5 cbr 1000 ------- 56 4.0 5.0 9 31
- 0.228 2 5 cbr 1000 ------- 56 4.0 5.0 9 31
+ 0.228 4 1 cbr 1000 ------- 56 4.0 5.0 16 50
- 0.228 4 1 cbr 1000 ------- 56 4.0 5.0 16 50
- 0.228667 1 2 cbr 1000 ------- 14 0.0 3.0 23 34
r 0.231333 0 1 cbr 1000 ------- 14 0.0 3.0 27 45
+ 0.231333 1 2 cbr 1000 ------- 14 0.0 3.0 27 45
+ 0.232 0 1 cbr 1000 ------- 14 0.0 3.0 29 51
- 0.232 0 1 cbr 1000 ------- 14 0.0 3.0 29 51
r 0.232667 2 5 cbr 1000 ------- 56 4.0 5.0 8 29
r 0.232667 6 1 cbr 500 ------- 78 6.0 7.0 3 46
+ 0.232667 1 2 cbr 500 ------- 78 6.0 7.0 3 46
r 0.233333 1 2 cbr 1000 ------- 14 0.0 3.0 22 32
+ 0.233333 2 3 cbr 1000 ------- 14 0.0 3.0 22 32
- 0.233333 2 3 cbr 1000 ------- 14 0.0 3.0 22 32
+ 0.233333 6 1 cbr 500 ------- 78 6.0 7.0 5 52
- 0.233333 6 1 cbr 500 ------- 78 6.0 7.0 5 52
- 0.234 1 2 cbr 1000 ------- 56 4.0 5.0 11 35
r 0.235333 4 1 cbr 1000 ------- 56 4.0 5.0 15 47
+ 0.235333 1 2 cbr 1000 ------- 56 4.0 5.0 15 47
+ 0.236 4 1 cbr 1000 ------- 56 4.0 5.0 17 53
- 0.236 4 1 cbr 1000 ------- 56 4.0 5.0 17 53
r 0.238 2 3 cbr 1000 ------- 14 0.0 3.0 21 30
r 0.238667 1 2 cbr 1000 ------- 56 4.0 5.0 10 33
+ 0.238667 2 5 cbr 1000 ------- 56 4.0 5.0 10 33
- 0.238667 2 5 cbr 1000 ------- 56 4.0 5.0 10 33
- 0.239333 1 2 cbr 1000 ------- 14 0.0 3.0 24 36
r 0.239333 6 1 cbr 500 ------- 78 6.0 7.0 4 49
+ 0.239333 1 2 cbr 500 ------- 78 6.0 7.0 4 49
r 0.239333 0 1 cbr 1000 ------- 14 0.0 3.0 28 48
+ 0.239333 1 2 cbr 1000 ------- 14 0.0 3.0 28 48
+ 0.24 6 1 cbr 500 ------- 78 6.0 7.0 6 54
- 0.24 6 1 cbr 500 ------- 78 6.0 7.0 6 54
+ 0.24 0 1 cbr 1000 ------- 14 0.0 3.0 30 55
- 0.24 0 1 cbr 1000 ------- 14 0.0 3.0 30 55
r 0.243333 2 5 cbr 1000 ------- 56 4.0 5.0 9 31
r 0.243333 4 1 cbr 1000 ------- 56 4.0 5.0 16 50
+ 0.243333 1 2 cbr 1000 ------- 56 4.0 5.0 16 50
r 0.244 1 2 cbr 1000 ------- 14 0.0 3.0 23 34
+ 0.244 2 3 cbr 1000 ------- 14 0.0 3.0 23 34
- 0.244 2 3 cbr 1000 ------- 14 0.0 3.0 23 34
+ 0.244 4 1 cbr 1000 ------- 56 4.0 5.0 18 56
- 0.244 4 1 cbr 1000 ------- 56 4.0 5.0 18 56
- 0.244667 1 2 cbr 1000 ------- 56 4.0 5.0 12 37
r 0.246 6 1 cbr 500 ------- 78 6.0 7.0 5 52
+ 0.246 1 2 cbr 500 ------- 78 6.0 7.0 5 52
+ 0.246667 6 1 cbr 500 ------- 78 6.0 7.0 7 57
- 0.246667 6 1 cbr 500 ------- 78 6.0 7.0 7 57
r 0.247333 0 1 cbr 1000 ------- 14 0.0 3.0 29 51
+ 0.247333 1 2 cbr 1000 ------- 14 0.0 3.0 29 51
+ 0.248 0 1 cbr 1000 ------- 14 0.0 3.0 31 58
- 0.248 0 1 cbr 1000 ------- 14 0.0 3.0 31 58
r 0.248667 2 3 cbr 1000 ------- 14 0.0 3.0 22 32
r 0.249333 1 2 cbr 1000 ------- 56 4.0 5.0 11 35
+ 0.249333 2 5 cbr 1000 ------- 56 4.0 5.0 11 35
- 0.249333 2 5 cbr 1000 ------- 56 4.0 5.0 11 35
- 0.25 1 2 cbr 500 ------- 78 6.0 7.0 0 38
r 0.251333 4 1 cbr 1000 ------- 56 4.0 5.0 17 53
+ 0.251333 1 2 cbr 1000 ------- 56 4.0 5.0 17 53
+ 0.252 4 1 cbr 1000 ------- 56 4.0 5.0 19 59
- 0.252 4 1 cbr 1000 ------- 56 4.0 5.0 19 59
r 0.252667 6 1 cbr 500 ------- 78 6.0 7.0 6 54
+ 0.252667 1 2 cbr 500 ------- 78 6.0 7.0 6 54
- 0.252667 1 2 cbr 1000 ------- 14 0.0 3.0 25 39
+ 0.253333 6 1 cbr 500 ------- 78 6.0 7.0 8 60
- 0.253333 6 1 cbr 500 ------- 78 6.0 7.0 8 60
r 0.254 2 5 cbr 1000 ------- 56 4.0 5.0 10 33
r 0.254667 1 2 cbr 1000 ------- 14 0.0 3.0 24 36
+ 0.254667 2 3 cbr 1000 ------- 14 0.0 3.0 24 36
- 0.254667 2 3 cbr 1000 ------- 14 0.0 3.0 24 36
r 0.255333 0 1 cbr 1000 ------- 14 0.0 3.0 30 55
+ 0.255333 1 2 cbr 1000 ------- 14 0.0 3.0 30 55
+ 0.256 0 1 cbr 1000 ------- 14 0.0 3.0 32 61
- 0.256 0 1 cbr 1000 ------- 14 0.0 3.0 32 61
- 0.258 1 2 cbr 500 ------- 78 6.0 7.0 1 41
r 0.259333 2 3 cbr 1000 ------- 14 0.0 3.0 23 34
r 0.259333 6 1 cbr 500 ------- 78 6.0 7.0 7 57
+ 0.259333 1 2 cbr 500 ------- 78 6.0 7.0 7 57
r 0.259333 4 1 cbr 1000 ------- 56 4.0 5.0 18 56
+ 0.259333 1 2 cbr 1000 ------- 56 4.0 5.0 18 56
r 0.26 1 2 cbr 1000 ------- 56 4.0 5.0 12 37
+ 0.26 2 5 cbr 1000 ------- 56 4.0 5.0 12 37
- 0.26 2 5 cbr 1000 ------- 56 4.0 5.0 12 37
+ 0.26 6 1 cbr 500 ------- 78 6.0 7.0 9 62
- 0.26 6 1 cbr 500 ------- 78 6.0 7.0 9 62
+ 0.26 4 1 cbr 1000 ------- 56 4.0 5.0 20 63
- 0.26 4 1 cbr 1000 ------- 56 4.0 5.0 20 63
- 0.260667 1 2 cbr 1000 ------- 56 4.0 5.0 13 40
r 0.262667 1 2 cbr 500 ------- 78 6.0 7.0 0 38
+ 0.262667 2 7 cbr 500 ------- 78 6.0 7.0 0 38
- 0.262667 2 7 cbr 500 ------- 78 6.0 7.0 0 38
r 0.263333 0 1 cbr 1000 ------- 14 0.0 3.0 31 58
+ 0.263333 1 2 cbr 1000 ------- 14 0.0 3.0 31 58
+ 0.264 0 1 cbr 1000 ------- 14 0.0 3.0 33 64
- 0.264 0 1 cbr 1000 ------- 14 0.0 3.0 33 64
r 0.264667 2 5 cbr 1000 ------- 56 4.0 5.0 11 35
r 0.266 6 1 cbr 500 ------- 78 6.0 7.0 8 60
+ 0.266 1 2 cbr 500 ------- 78 6.0 7.0 8 60
- 0.266 1 2 cbr 1000 ------- 14 0.0 3.0 26 42
+ 0.266667 6 1 cbr 500 ------- 78 6.0 7.0 10 65
- 0.266667 6 1 cbr 500 ------- 78 6.0 7.0 10 65
r 0.267333 4 1 cbr 1000 ------- 56 4.0 5.0 19 59
+ 0.267333 1 2 cbr 1000 ------- 56 4.0 5.0 19 59
r 0.268 1 2 cbr 1000 ------- 14 0.0 3.0 25 39
+ 0.268 2 3 cbr 1000 ------- 14 0.0 3.0 25 39
- 0.268 2 3 cbr 1000 ------- 14 0.0 3.0 25 39
+ 0.268 4 1 cbr 1000 ------- 56 4.0 5.0 21 66
- 0.268 4 1 cbr 1000 ------- 56 4.0 5.0 21 66
r 0.27 2 3 cbr 1000 ------- 14 0.0 3.0 24 36
r 0.270667 1 2 cbr 500 ------- 78 6.0 7.0 1 41
+ 0.270667 2 7 cbr 500 ------- 78 6.0 7.0 1 41
- 0.270667 2 7 cbr 500 ------- 78 6.0 7.0 1 41
- 0.271333 1 2 cbr 500 ------- 78 6.0 7.0 2 44
r 0.271333 0 1 cbr 1000 ------- 14 0.0 3.0 32 61
+ 0.271333 1 2 cbr 1000 ------- 14 0.0 3.0 32 61
+ 0.272 0 1 cbr 1000 ------- 14 0.0 3.0 34 67
- 0.272 0 1 cbr 1000 ------- 14 0.0 3.0 34 67
r 0.272667 6 1 cbr 500 ------- 78 6.0 7.0 9 62
+ 0.272667 1 2 cbr 500 ------- 78 6.0 7.0 9 62
+ 0.273333 6 1 cbr 500 ------- 78 6.0 7.0 11 68
- 0.273333 6 1 cbr 500 ------- 78 6.0 7.0 11 68
- 0.274 1 2 cbr 1000 ------- 56 4.0 5.0 14 43
r 0.275333 2 5 cbr 1000 ------- 56 4.0 5.0 12 37
r 0.275333 2 7 cbr 500 ------- 78 6.0 7.0 0 38
r 0.275333 4 1 cbr 1000 ------- 56 4.0 5.0 20 63
+ 0.275333 1 2 cbr 1000 ------- 56 4.0 5.0 20 63
r 0.276 1 2 cbr 1000 ------- 56 4.0 5.0 13 40
+ 0.276 2 5 cbr 1000 ------- 56 4.0 5.0 13 40
- 0.276 2 5 cbr 1000 ------- 56 4.0 5.0 13 40
+ 0.276 4 1 cbr 1000 ------- 56 4.0 5.0 22 69
- 0.276 4 1 cbr 1000 ------- 56 4.0 5.0 22 69
r 0.279333 6 1 cbr 500 ------- 78 6.0 7.0 10 65
+ 0.279333 1 2 cbr 500 ------- 78 6.0 7.0 10 65
- 0.279333 1 2 cbr 1000 ------- 14 0.0 3.0 27 45
r 0.279333 0 1 cbr 1000 ------- 14 0.0 3.0 33 64
+ 0.279333 1 2 cbr 1000 ------- 14 0.0 3.0 33 64
+ 0.28 6 1 cbr 500 ------- 78 6.0 7.0 12 70
- 0.28 6 1 cbr 500 ------- 78 6.0 7.0 12 70
+ 0.28 0 1 cbr 1000 ------- 14 0.0 3.0 35 71
- 0.28 0 1 cbr 1000 ------- 14 0.0 3.0 35 71
r 0.281333 1 2 cbr 1000 ------- 14 0.0 3.0 26 42
+ 0.281333 2 3 cbr 1000 ------- 14 0.0 3.0 26 42
- 0.281333 2 3 cbr 1000 ------- 14 0.0 3.0 26 42
r 0.283333 2 3 cbr 1000 ------- 14 0.0 3.0 25 39
r 0.283333 2 7 cbr 500 ------- 78 6.0 7.0 1 41
r 0.283333 4 1 cbr 1000 ------- 56 4.0 5.0 21 66
+ 0.283333 1 2 cbr 1000 ------- 56 4.0 5.0 21 66
r 0.284 1 2 cbr 500 ------- 78 6.0 7.0 2 44
+ 0.284 2 7 cbr 500 ------- 78 6.0 7.0 2 44
- 0.284 2 7 cbr 500 ------- 78 6.0 7.0 2 44
+ 0.284 4 1 cbr 1000 ------- 56 4.0 5.0 23 72
- 0.284 4 1 cbr 1000 ------- 56 4.0 5.0 23 72
- 0.284667 1 2 cbr 500 ------- 78 6.0 7.0 3 46
r 0.286 6 1 cbr 500 ------- 78 6.0 7.0 11 68
+ 0.286 1 2 cbr 500 ------- 78 6.0 7.0 11 68
+ 0.286667 6 1 cbr 500 ------- 78 6.0 7.0 13 73
- 0.286667 6 1 cbr 500 ------- 78 6.0 7.0 13 73
- 0.287333 1 2 cbr 1000 ------- 56 4.0 5.0 15 47
r 0.287333 0 1 cbr 1000 ------- 14 0.0 3.0 34 67
+ 0.287333 1 2 cbr 1000 ------- 14 0.0 3.0 34 67
+ 0.288 0 1 cbr 1000 ------- 14 0.0 3.0 36 74
- 0.288 0 1 cbr 1000 ------- 14 0.0 3.0 36 74
r 0.289333 1 2 cbr 1000 ------- 56 4.0 5.0 14 43
+ 0.289333 2 5 cbr 1000 ------- 56 4.0 5.0 14 43
- 0.289333 2 5 cbr 1000 ------- 56 4.0 5.0 14 43
r 0.291333 2 5 cbr 1000 ------- 56 4.0 5.0 13 40
r 0.291333 4 1 cbr 1000 ------- 56 4.0 5.0 22 69
+ 0.291333 1 2 cbr 1000 ------- 56 4.0 5.0 22 69
+ 0.292 4 1 cbr 1000 ------- 56 4.0 5.0 24 75
- 0.292 4 1 cbr 1000 ------- 56 4.0 5.0 24 75
r 0.292667 6 1 cbr 500 ------- 78 6.0 7.0 12 70
+ 0.292667 1 2 cbr 500 ------- 78 6.0 7.0 12 70
- 0.292667 1 2 cbr 500 ------- 78 6.0 7.0 4 49
+ 0.293333 6 1 cbr 500 ------- 78 6.0 7.0 14 76
- 0.293333 6 1 cbr 500 ------- 78 6.0 7.0 14 76
r 0.294667 1 2 cbr 1000 ------- 14 0.0 3.0 27 45
+ 0.294667 2 3 cbr 1000 ------- 14 0.0 3.0 27 45
- 0.294667 2 3 cbr 1000 ------- 14 0.0 3.0 27 45
- 0.295333 1 2 cbr 1000 ------- 14 0.0 3.0 28 48
r 0.295333 0 1 cbr 1000 ------- 14 0.0 3.0 35 71
+ 0.295333 1 2 cbr 1000 ------- 14 0.0 3.0 35 71
+ 0.296 0 1 cbr 1000 ------- 14 0.0 3.0 37 77
- 0.296 0 1 cbr 1000 ------- 14 0.0 3.0 37 77
r 0.296667 2 3 cbr 1000 ------- 14 0.0 3.0 26 42
r 0.296667 2 7 cbr 500 ------- 78 6.0 7.0 2 44
r 0.297333 1 2 cbr 500 ------- 78 6.0 7.0 3 46
+ 0.297333 2 7 cbr 500 ------- 78 6.0 7.0 3 46
- 0.297333 2 7 cbr 500 ------- 78 6.0 7.0 3 46
r 0.299333 6 1 cbr 500 ------- 78 6.0 7.0 13 73
+ 0.299333 1 2 cbr 500 ------- 78 6.0 7.0 13 73
r 0.299333 4 1 cbr 1000 ------- 56 4.0 5.0 23 72
+ 0.299333 1 2 cbr 1000 ------- 56 4.0 5.0 23 72
+ 0.3 6 1 cbr 500 ------- 78 6.0 7.0 15 78
- 0.3 6 1 cbr 500 ------- 78 6.0 7.0 15 78
+ 0.3 4 1 cbr 1000 ------- 56 4.0 5.0 25 79
- 0.3 4 1 cbr 1000 ------- 56 4.0 5.0 25 79
- 0.300667 1 2 cbr 1000 ------- 56 4.0 5.0 16 50
r 0.302667 1 2 cbr 1000 ------- 56 4.0 5.0 15 47
+ 0.302667 2 5 cbr 1000 ------- 56 4.0 5.0 15 47
- 0.302667 2 5 cbr 1000 ------- 56 4.0 5.0 15 47
r 0.303333 0 1 cbr 1000 ------- 14 0.0 3.0 36 74
+ 0.303333 1 2 cbr 1000 ------- 14 0.0 3.0 36 74
+ 0.304 0 1 cbr 1000 ------- 14 0.0 3.0 38 80
- 0.304 0 1 cbr 1000 ------- 14 0.0 3.0 38 80
r 0.304667 2 5 cbr 1000 ------- 56 4.0 5.0 14 43
r 0.305333 1 2 cbr 500 ------- 78 6.0 7.0 4 49
+ 0.305333 2 7 cbr 500 ------- 78 6.0 7.0 4 49
- 0.305333 2 7 cbr 500 ------- 78 6.0 7.0 4 49
r 0.306 6 1 cbr 500 ------- 78 6.0 7.0 14 76
+ 0.306 1 2 cbr 500 ------- 78 6.0 7.0 14 76
- 0.306 1 2 cbr 500 ------- 78 6.0 7.0 5 52
+ 0.306667 6 1 cbr 500 ------- 78 6.0 7.0 16 81
- 0.306667 6 1 cbr 500 ------- 78 6.0 7.0 16 81
r 0.307333 4 1 cbr 1000 ------- 56 4.0 5.0 24 75
+ 0.307333 1 2 cbr 1000 ------- 56 4.0 5.0 24 75
+ 0.308 4 1 cbr 1000 ------- 56 4.0 5.0 26 82
- 0.308 4 1 cbr 1000 ------- 56 4.0 5.0 26 82
- 0.308667 1 2 cbr 1000 ------- 14 0.0 3.0 29 51
r 0.31 2 3 cbr 1000 ------- 14 0.0 3.0 27 45
r 0.31 2 7 cbr 500 ------- 78 6.0 7.0 3 46
r 0.310667 1 2 cbr 1000 ------- 14 0.0 3.0 28 48
+ 0.310667 2 3 cbr 1000 ------- 14 0.0 3.0 28 48
- 0.310667 2 3 cbr 1000 ------- 14 0.0 3.0 28 48
r 0.311333 0 1 cbr 1000 ------- 14 0.0 3.0 37 77
+ 0.311333 1 2 cbr 1000 ------- 14 0.0 3.0 37 77
+ 0.312 0 1 cbr 1000 ------- 14 0.0 3.0 39 83
- 0.312 0 1 cbr 1000 ------- 14 0.0 3.0 39 83
r 0.312667 6 1 cbr 500 ------- 78 6.0 7.0 15 78
+ 0.312667 1 2 cbr 500 ------- 78 6.0 7.0 15 78
+ 0.313333 6 1 cbr 500 ------- 78 6.0 7.0 17 84
- 0.313333 6 1 cbr 500 ------- 78 6.0 7.0 17 84
- 0.314 1 2 cbr 1000 ------- 56 4.0 5.0 17 53
r 0.315333 4 1 cbr 1000 ------- 56 4.0 5.0 25 79
+ 0.315333 1 2 cbr 1000 ------- 56 4.0 5.0 25 79
r 0.316 1 2 cbr 1000 ------- 56 4.0 5.0 16 50
+ 0.316 2 5 cbr 1000 ------- 56 4.0 5.0 16 50
- 0.316 2 5 cbr 1000 ------- 56 4.0 5.0 16 50
+ 0.316 4 1 cbr 1000 ------- 56 4.0 5.0 27 85
- 0.316 4 1 cbr 1000 ------- 56 4.0 5.0 27 85
r 0.318 2 5 cbr 1000 ------- 56 4.0 5.0 15 47
r 0.318 2 7 cbr 500 ------- 78 6.0 7.0 4 49
r 0.318667 1 2 cbr 500 ------- 78 6.0 7.0 5 52
+ 0.318667 2 7 cbr 500 ------- 78 6.0 7.0 5 52
- 0.318667 2 7 cbr 500 ------- 78 6.0 7.0 5 52
r 0.319333 6 1 cbr 500 ------- 78 6.0 7.0 16 81
+ 0.319333 1 2 cbr 500 ------- 78 6.0 7.0 16 81
- 0.319333 1 2 cbr 500 ------- 78 6.0 7.0 6 54
r 0.319333 0 1 cbr 1000 ------- 14 0.0 3.0 38 80
+ 0.319333 1 2 cbr 1000 ------- 14 0.0 3.0 38 80
+ 0.32 6 1 cbr 500 ------- 78 6.0 7.0 18 86
- 0.32 6 1 cbr 500 ------- 78 6.0 7.0 18 86
+ 0.32 0 1 cbr 1000 ------- 14 0.0 3.0 40 87
- 0.32 0 1 cbr 1000 ------- 14 0.0 3.0 40 87
- 0.322 1 2 cbr 1000 ------- 14 0.0 3.0 30 55
r 0.323333 4 1 cbr 1000 ------- 56 4.0 5.0 26 82
+ 0.323333 1 2 cbr 1000 ------- 56 4.0 5.0 26 82
r 0.324 1 2 cbr 1000 ------- 14 0.0 3.0 29 51
+ 0.324 2 3 cbr 1000 ------- 14 0.0 3.0 29 51
- 0.324 2 3 cbr 1000 ------- 14 0.0 3.0 29 51
+ 0.324 4 1 cbr 1000 ------- 56 4.0 5.0 28 88
- 0.324 4 1 cbr 1000 ------- 56 4.0 5.0 28 88
r 0.326 6 1 cbr 500 ------- 78 6.0 7.0 17 84
+ 0.326 1 2 cbr 500 ------- 78 6.0 7.0 17 84
r 0.326 2 3 cbr 1000 ------- 14 0.0 3.0 28 48
+ 0.326667 6 1 cbr 500 ------- 78 6.0 7.0 19 89
- 0.326667 6 1 cbr 500 ------- 78 6.0 7.0 19 89
- 0.327333 1 2 cbr 500 ------- 78 6.0 7.0 7 57
r 0.327333 0 1 cbr 1000 ------- 14 0.0 3.0 39 83
+ 0.327333 1 2 cbr 1000 ------- 14 0.0 3.0 39 83
+ 0.328 0 1 cbr 1000 ------- 14 0.0 3.0 41 90
- 0.328 0 1 cbr 1000 ------- 14 0.0 3.0 41 90
r 0.329333 1 2 cbr 1000 ------- 56 4.0 5.0 17 53
+ 0.329333 2 5 cbr 1000 ------- 56 4.0 5.0 17 53
- 0.329333 2 5 cbr 1000 ------- 56 4.0 5.0 17 53
- 0.33 1 2 cbr 1000 ------- 56 4.0 5.0 18 56
r 0.331333 2 5 cbr 1000 ------- 56 4.0 5.0 16 50
r 0.331333 2 7 cbr 500 ------- 78 6.0 7.0 5 52
r 0.331333 4 1 cbr 1000 ------- 56 4.0 5.0 27 85
+ 0.331333 1 2 cbr 1000 ------- 56 4.0 5.0 27 85
r 0.332 1 2 cbr 500 ------- 78 6.0 7.0 6 54
+ 0.332 2 7 cbr 500 ------- 78 6.0 7.0 6 54
- 0.332 2 7 cbr 500 ------- 78 6.0 7.0 6 54
+ 0.332 4 1 cbr 1000 ------- 56 4.0 5.0 29 91
- 0.332 4 1 cbr 1000 ------- 56 4.0 5.0 29 91
r 0.332667 6 1 cbr 500 ------- 78 6.0 7.0 18 86
+ 0.332667 1 2 cbr 500 ------- 78 6.0 7.0 18 86
+ 0.333333 6 1 cbr 500 ------- 78 6.0 7.0 20 92
- 0.333333 6 1 cbr 500 ------- 78 6.0 7.0 20 92
- 0.335333 1 2 cbr 1000 ------- 14 0.0 3.0 31 58
r 0.335333 0 1 cbr 1000 ------- 14 0.0 3.0 40 87
+ 0.335333 1 2 cbr 1000 ------- 14 0.0 3.0 40 87