+ 0 0 1 cbr 1000 ------- 14 0.0 3.0 0 0
- 0 0 1 cbr 1000 ------- 14 0.0 3.0 0 0
+ 0.008 0 1 cbr 1000 ------- 14 0.0 3.0 1 1
- 0.008 0 1 cbr 1000 ------- 14 0.0 3.0 1 1
r 0.015333 0 1 cbr 1000 ------- 14 0.0 3.0 0 0
+ 0.015333 1 2 cbr 1000 ------- 14 0.0 3.0 0 0
- 0.015333 1 2 cbr 1000 ------- 14 0.0 3.0 0 0
+ 0.016 0 1 cbr 1000 ------- 14 0.0 3.0 2 2
- 0.016 0 1 cbr 1000 ------- 14 0.0 3.0 2 2
r 0.023333 0 1 cbr 1000 ------- 14 0.0 3.0 1 1
+ 0.023333 1 2 cbr 1000 ------- 14 0.0 3.0 1 1
- 0.023333 1 2 cbr 1000 ------- 14 0.0 3.0 1 1
+ 0.024 0 1 cbr 1000 ------- 14 0.0 3.0 3 3
- 0.024 0 1 cbr 1000 ------- 14 0.0 3.0 3 3
r 0.030667 1 2 cbr 1000 ------- 14 0.0 3.0 0 0
+ 0.030667 2 3 cbr 1000 ------- 14 0.0 3.0 0 0
- 0.030667 2 3 cbr 1000 ------- 14 0.0 3.0 0 0
r 0.031333 0 1 cbr 1000 ------- 14 0.0 3.0 2 2
+ 0.031333 1 2 cbr 1000 ------- 14 0.0 3.0 2 2
- 0.031333 1 2 cbr 1000 ------- 14 0.0 3.0 2 2
+ 0.032 0 1 cbr 1000 ------- 14 0.0 3.0 4 4
- 0.032 0 1 cbr 1000 ------- 14 0.0 3.0 4 4
r 0.038667 1 2 cbr 1000 ------- 14 0.0 3.0 1 1
+ 0.038667 2 3 cbr 1000 ------- 14 0.0 3.0 1 1
- 0.038667 2 3 cbr 1000 ------- 14 0.0 3.0 1 1
r 0.039333 0 1 cbr 1000 ------- 14 0.0 3.0 3 3
+ 0.039333 1 2 cbr 1000 ------- 14 0.0 3.0 3 3
- 0.039333 1 2 cbr 1000 ------- 14 0.0 3.0 3 3
+ 0.04 0 1 cbr 1000 ------- 14 0.0 3.0 5 5
- 0.04 0 1 cbr 1000 ------- 14 0.0 3.0 5 5
r 0.046 2 3 cbr 1000 ------- 14 0.0 3.0 0 0
r 0.046667 1 2 cbr 1000 ------- 14 0.0 3.0 2 2
+ 0.046667 2 3 cbr 1000 ------- 14 0.0 3.0 2 2
- 0.046667 2 3 cbr 1000 ------- 14 0.0 3.0 2 2
r 0.047333 0 1 cbr 1000 ------- 14 0.0 3.0 4 4
+ 0.047333 1 2 cbr 1000 ------- 14 0.0 3.0 4 4
- 0.047333 1 2 cbr 1000 ------- 14 0.0 3.0 4 4
+ 0.048 0 1 cbr 1000 ------- 14 0.0 3.0 6 6
- 0.048 0 1 cbr 1000 ------- 14 0.0 3.0 6 6
r 0.054 2 3 cbr 1000 ------- 14 0.0 3.0 1 1
r 0.054667 1 2 cbr 1000 ------- 14 0.0 3.0 3 3
+ 0.054667 2 3 cbr 1000 ------- 14 0.0 3.0 3 3
- 0.054667 2 3 cbr 1000 ------- 14 0.0 3.0 3 3
r 0.055333 0 1 cbr 1000 ------- 14 0.0 3.0 5 5
+ 0.055333 1 2 cbr 1000 ------- 14 0.0 3.0 5 5
- 0.055333 1 2 cbr 1000 ------- 14 0.0 3.0 5 5
+ 0.056 0 1 cbr 1000 ------- 14 0.0 3.0 7 7
- 0.056 0 1 cbr 1000 ------- 14 0.0 3.0 7 7
r 0.062 2 3 cbr 1000 ------- 14 0.0 3.0 2 2
r 0.062667 1 2 cbr 1000 ------- 14 0.0 3.0 4 4
+ 0.062667 2 3 cbr 1000 ------- 14 0.0 3.0 4 4
- 0.062667 2 3 cbr 1000 ------- 14 0.0 3.0 4 4
r 0.063333 0 1 cbr 1000 ------- 14 0.0 3.0 6 6
+ 0.063333 1 2 cbr 1000 ------- 14 0.0 3.0 6 6
- 0.063333 1 2 cbr 1000 ------- 14 0.0 3.0 6 6
+ 0.064 0 1 cbr 1000 ------- 14 0.0 3.0 8 8
- 0.064 0 1 cbr 1000 ------- 14 0.0 3.0 8 8
r 0.07 2 3 cbr 1000 ------- 14 0.0 3.0 3 3
r 0.070667 1 2 cbr 1000 ------- 14 0.0 3.0 5 5
+ 0.070667 2 3 cbr 1000 ------- 14 0.0 3.0 5 5
- 0.070667 2 3 cbr 1000 ------- 14 0.0 3.0 5 5
r 0.071333 0 1 cbr 1000 ------- 14 0.0 3.0 7 7
+ 0.071333 1 2 cbr 1000 ------- 14 0.0 3.0 7 7
- 0.071333 1 2 cbr 1000 ------- 14 0.0 3.0 7 7
+ 0.072 0 1 cbr 1000 ------- 14 0.0 3.0 9 9
- 0.072 0 1 cbr 1000 ------- 14 0.0 3.0 9 9
r 0.078 2 3 cbr 1000 ------- 14 0.0 3.0 4 4
r 0.078667 1 2 cbr 1000 ------- 14 0.0 3.0 6 6
+ 0.078667 2 3 cbr 1000 ------- 14 0.0 3.0 6 6
- 0.078667 2 3 cbr 1000 ------- 14 0.0 3.0 6 6
r 0.079333 0 1 cbr 1000 ------- 14 0.0 3.0 8 8
+ 0.079333 1 2 cbr 1000 ------- 14 0.0 3.0 8 8
- 0.079333 1 2 cbr 1000 ------- 14 0.0 3.0 8 8
+ 0.08 0 1 cbr 1000 ------- 14 0.0 3.0 10 10
- 0.08 0 1 cbr 1000 ------- 14 0.0 3.0 10 10
r 0.086 2 3 cbr 1000 ------- 14 0.0 3.0 5 5
r 0.086667 1 2 cbr 1000 ------- 14 0.0 3.0 7 7
+ 0.086667 2 3 cbr 1000 ------- 14 0.0 3.0 7 7
- 0.086667 2 3 cbr 1000 ------- 14 0.0 3.0 7 7
r 0.087333 0 1 cbr 1000 ------- 14 0.0 3.0 9 9
+ 0.087333 1 2 cbr 1000 ------- 14 0.0 3.0 9 9
- 0.087333 1 2 cbr 1000 ------- 14 0.0 3.0 9 9
+ 0.088 0 1 cbr 1000 ------- 14 0.0 3.0 11 11
- 0.088 0 1 cbr 1000 ------- 14 0.0 3.0 11 11
r 0.094 2 3 cbr 1000 ------- 14 0.0 3.0 6 6
r 0.094667 1 2 cbr 1000 ------- 14 0.0 3.0 8 8
+ 0.094667 2 3 cbr 1000 ------- 14 0.0 3.0 8 8
- 0.094667 2 3 cbr 1000 ------- 14 0.0 3.0 8 8
r 0.095333 0 1 cbr 1000 ------- 14 0.0 3.0 10 10
+ 0.095333 1 2 cbr 1000 ------- 14 0.0 3.0 10 10
- 0.095333 1 2 cbr 1000 ------- 14 0.0 3.0 10 10
+ 0.096 0 1 cbr 1000 ------- 14 0.0 3.0 12 12
- 0.096 0 1 cbr 1000 ------- 14 0.0 3.0 12 12
r 0.102 2 3 cbr 1000 ------- 14 0.0 3.0 7 7
r 0.102667 1 2 cbr 1000 ------- 14 0.0 3.0 9 9
+ 0.102667 2 3 cbr 1000 ------- 14 0.0 3.0 9 9
- 0.102667 2 3 cbr 1000 ------- 14 0.0 3.0 9 9
r 0.103333 0 1 cbr 1000 ------- 14 0.0 3.0 11 11
+ 0.103333 1 2 cbr 1000 ------- 14 0.0 3.0 11 11
- 0.103333 1 2 cbr 1000 ------- 14 0.0 3.0 11 11
+ 0.104 0 1 cbr 1000 ------- 14 0.0 3.0 13 13
- 0.104 0 1 cbr 1000 ------- 14 0.0 3.0 13 13
r 0.11 2 3 cbr 1000 ------- 14 0.0 3.0 8 8
r 0.110667 1 2 cbr 1000 ------- 14 0.0 3.0 10 10
+ 0.110667 2 3 cbr 1000 ------- 14 0.0 3.0 10 10
- 0.110667 2 3 cbr 1000 ------- 14 0.0 3.0 10 10
r 0.111333 0 1 cbr 1000 ------- 14 0.0 3.0 12 12
+ 0.111333 1 2 cbr 1000 ------- 14 0.0 3.0 12 12
- 0.111333 1 2 cbr 1000 ------- 14 0.0 3.0 12 12
+ 0.112 0 1 cbr 1000 ------- 14 0.0 3.0 14 14
- 0.112 0 1 cbr 1000 ------- 14 0.0 3.0 14 14
r 0.118 2 3 cbr 1000 ------- 14 0.0 3.0 9 9
r 0.118667 1 2 cbr 1000 ------- 14 0.0 3.0 11 11
+ 0.118667 2 3 cbr 1000 ------- 14 0.0 3.0 11 11
- 0.118667 2 3 cbr 1000 ------- 14 0.0 3.0 11 11
r 0.119333 0 1 cbr 1000 ------- 14 0.0 3.0 13 13
+ 0.119333 1 2 cbr 1000 ------- 14 0.0 3.0 13 13
- 0.119333 1 2 cbr 1000 ------- 14 0.0 3.0 13 13
+ 0.12 0 1 cbr 1000 ------- 14 0.0 3.0 15 15
- 0.12 0 1 cbr 1000 ------- 14 0.0 3.0 15 15
r 0.126 2 3 cbr 1000 ------- 14 0.0 3.0 10 10
r 0.126667 1 2 cbr 1000 ------- 14 0.0 3.0 12 12
+ 0.126667 2 3 cbr 1000 ------- 14 0.0 3.0 12 12
- 0.126667 2 3 cbr 1000 ------- 14 0.0 3.0 12 12
r 0.127333 0 1 cbr 1000 ------- 14 0.0 3.0 14 14
+ 0.127333 1 2 cbr 1000 ------- 14 0.0 3.0 14 14
- 0.127333 1 2 cbr 1000 ------- 14 0.0 3.0 14 14
+ 0.128 0 1 cbr 1000 ------- 14 0.0 3.0 16 16
- 0.128 0 1 cbr 1000 ------- 14 0.0 3.0 16 16
r 0.134 2 3 cbr 1000 ------- 14 0.0 3.0 11 11
r 0.134667 1 2 cbr 1000 ------- 14 0.0 3.0 13 13
+ 0.134667 2 3 cbr 1000 ------- 14 0.0 3.0 13 13
- 0.134667 2 3 cbr 1000 ------- 14 0.0 3.0 13 13
r 0.135333 0 1 cbr 1000 ------- 14 0.0 3.0 15 15
+ 0.135333 1 2 cbr 1000 ------- 14 0.0 3.0 15 15
- 0.135333 1 2 cbr 1000 ------- 14 0.0 3.0 15 15
+ 0.136 0 1 cbr 1000 ------- 14 0.0 3.0 17 17
- 0.136 0 1 cbr 1000 ------- 14 0.0 3.0 17 17
r 0.142 2 3 cbr 1000 ------- 14 0.0 3.0 12 12
r 0.142667 1 2 cbr 1000 ------- 14 0.0 3.0 14 14
+ 0.142667 2 3 cbr 1000 ------- 14 0.0 3.0 14 14
- 0.142667 2 3 cbr 1000 ------- 14 0.0 3.0 14 14
r 0.143333 0 1 cbr 1000 ------- 14 0.0 3.0 16 16
+ 0.143333 1 2 cbr 1000 ------- 14 0.0 3.0 16 16
- 0.143333 1 2 cbr 1000 ------- 14 0.0 3.0 16 16
+ 0.144 0 1 cbr 1000 ------- 14 0.0 3.0 18 18
- 0.144 0 1 cbr 1000 ------- 14 0.0 3.0 18 18
r 0.15 2 3 cbr 1000 ------- 14 0.0 3.0 13 13
r 0.150667 1 2 cbr 1000 ------- 14 0.0 3.0 15 15
+ 0.150667 2 3 cbr 1000 ------- 14 0.0 3.0 15 15
- 0.150667 2 3 cbr 1000 ------- 14 0.0 3.0 15 15
r 0.151333 0 1 cbr 1000 ------- 14 0.0 3.0 17 17
+ 0.151333 1 2 cbr 1000 ------- 14 0.0 3.0 17 17
- 0.151333 1 2 cbr 1000 ------- 14 0.0 3.0 17 17
+ 0.152 0 1 cbr 1000 ------- 14 0.0 3.0 19 19
- 0.152 0 1 cbr 1000 ------- 14 0.0 3.0 19 19
r 0.158 2 3 cbr 1000 ------- 14 0.0 3.0 14 14
r 0.158667 1 2 cbr 1000 ------- 14 0.0 3.0 16 16
+ 0.158667 2 3 cbr 1000 ------- 14 0.0 3.0 16 16
- 0.158667 2 3 cbr 1000 ------- 14 0.0 3.0 16 16
r 0.159333 0 1 cbr 1000 ------- 14 0.0 3.0 18 18
+ 0.159333 1 2 cbr 1000 ------- 14 0.0 3.0 18 18
- 0.159333 1 2 cbr 1000 ------- 14 0.0 3.0 18 18
+ 0.16 0 1 cbr 1000 ------- 14 0.0 3.0 20 20
- 0.16 0 1 cbr 1000 ------- 14 0.0 3.0 20 20
r 0.166 2 3 cbr 1000 ------- 14 0.0 3.0 15 15
r 0.166667 1 2 cbr 1000 ------- 14 0.0 3.0 17 17
+ 0.166667 2 3 cbr 1000 ------- 14 0.0 3.0 17 17
- 0.166667 2 3 cbr 1000 ------- 14 0.0 3.0 17 17
r 0.167333 0 1 cbr 1000 ------- 14 0.0 3.0 19 19
+ 0.167333 1 2 cbr 1000 ------- 14 0.0 3.0 19 19
- 0.167333 1 2 cbr 1000 ------- 14 0.0 3.0 19 19
+ 0.168 0 1 cbr 1000 ------- 14 0.0 3.0 21 21
- 0.168 0 1 cbr 1000 ------- 14 0.0 3.0 21 21
r 0.174 2 3 cbr 1000 ------- 14 0.0 3.0 16 16
r 0.174667 1 2 cbr 1000 ------- 14 0.0 3.0 18 18
+ 0.174667 2 3 cbr 1000 ------- 14 0.0 3.0 18 18
- 0.174667 2 3 cbr 1000 ------- 14 0.0 3.0 18 18
r 0.175333 0 1 cbr 1000 ------- 14 0.0 3.0 20 20
+ 0.175333 1 2 cbr 1000 ------- 14 0.0 3.0 20 20
- 0.175333 1 2 cbr 1000 ------- 14 0.0 3.0 20 20
+ 0.176 0 1 cbr 1000 ------- 14 0.0 3.0 22 22
- 0.176 0 1 cbr 1000 ------- 14 0.0 3.0 22 22
r 0.182 2 3 cbr 1000 ------- 14 0.0 3.0 17 17
r 0.182667 1 2 cbr 1000 ------- 14 0.0 3.0 19 19
+ 0.182667 2 3 cbr 1000 ------- 14 0.0 3.0 19 19
- 0.182667 2 3 cbr 1000 ------- 14 0.0 3.0 19 19
r 0.183333 0 1 cbr 1000 ------- 14 0.0 3.0 21 21
+ 0.183333 1 2 cbr 1000 ------- 14 0.0 3.0 21 21
- 0.183333 1 2 cbr 1000 ------- 14 0.0 3.0 21 21
+ 0.184 0 1 cbr 1000 ------- 14 0.0 3.0 23 23
- 0.184 0 1 cbr 1000 ------- 14 0.0 3.0 23 23
r 0.19 2 3 cbr 1000 ------- 14 0.0 3.0 18 18
r 0.190667 1 2 cbr 1000 ------- 14 0.0 3.0 20 20
+ 0.190667 2 3 cbr 1000 ------- 14 0.0 3.0 20 20
- 0.190667 2 3 cbr 1000 ------- 14 0.0 3.0 20 20
r 0.191333 0 1 cbr 1000 ------- 14 0.0 3.0 22 22
+ 0.191333 1 2 cbr 1000 ------- 14 0.0 3.0 22 22
- 0.191333 1 2 cbr 1000 ------- 14 0.0 3.0 22 22
+ 0.192 0 1 cbr 1000 ------- 14 0.0 3.0 24 24
- 0.192 0 1 cbr 1000 ------- 14 0.0 3.0 24 24
r 0.198 2 3 cbr 1000 ------- 14 0.0 3.0 19 19
r 0.198667 1 2 cbr 1000 ------- 14 0.0 3.0 21 21
+ 0.198667 2 3 cbr 1000 ------- 14 0.0 3.0 21 21
- 0.198667 2 3 cbr 1000 ------- 14 0.0 3.0 21 21
r 0.199333 0 1 cbr 1000 ------- 14 0.0 3.0 23 23
+ 0.199333 1 2 cbr 1000 ------- 14 0.0 3.0 23 23
- 0.199333 1 2 cbr 1000 ------- 14 0.0 3.0 23 23
+ 0.2 0 1 cbr 1000 ------- 14 0.0 3.0 25 25
- 0.2 0 1 cbr 1000 ------- 14 0.0 3.0 25 25
r 0.206 2 3 cbr 1000 ------- 14 0.0 3.0 20 20
r 0.206667 1 2 cbr 1000 ------- 14 0.0 3.0 22 22
+ 0.206667 2 3 cbr 1000 ------- 14 0.0 3.0 22 22
- 0.206667 2 3 cbr 1000 ------- 14 0.0 3.0 22 22
r 0.207333 0 1 cbr 1000 ------- 14 0.0 3.0 24 24
+ 0.207333 1 2 cbr 1000 ------- 14 0.0 3.0 24 24
- 0.207333 1 2 cbr 1000 ------- 14 0.0 3.0 24 24
+ 0.208 0 1 cbr 1000 ------- 14 0.0 3.0 26 26
- 0.208 0 1 cbr 1000 ------- 14 0.0 3.0 26 26
r 0.214 2 3 cbr 1000 ------- 14 0.0 3.0 21 21
r 0.214667 1 2 cbr 1000 ------- 14 0.0 3.0 23 23
+ 0.214667 2 3 cbr 1000 ------- 14 0.0 3.0 23 23
- 0.214667 2 3 cbr 1000 ------- 14 0.0 3.0 23 23
r 0.215333 0 1 cbr 1000 ------- 14 0.0 3.0 25 25
+ 0.215333 1 2 cbr 1000 ------- 14 0.0 3.0 25 25
- 0.215333 1 2 cbr 1000 ------- 14 0.0 3.0 25 25
+ 0.216 0 1 cbr 1000 ------- 14 0.0 3.0 27 27
- 0.216 0 1 cbr 1000 ------- 14 0.0 3.0 27 27
r 0.222 2 3 cbr 1000 ------- 14 0.0 3.0 22 22
r 0.222667 1 2 cbr 1000 ------- 14 0.0 3.0 24 24
+ 0.222667 2 3 cbr 1000 ------- 14 0.0 3.0 24 24
- 0.222667 2 3 cbr 1000 ------- 14 0.0 3.0 24 24
r 0.223333 0 1 cbr 1000 ------- 14 0.0 3.0 26 26
+ 0.223333 1 2 cbr 1000 ------- 14 0.0 3.0 26 26
- 0.223333 1 2 cbr 1000 ------- 14 0.0 3.0 26 26
+ 0.224 0 1 cbr 1000 ------- 14 0.0 3.0 28 28
- 0.224 0 1 cbr 1000 ------- 14 0.0 3.0 28 28
r 0.23 2 3 cbr 1000 ------- 14 0.0 3.0 23 23
r 0.230667 1 2 cbr 1000 ------- 14 0.0 3.0 25 25
+ 0.230667 2 3 cbr 1000 ------- 14 0.0 3.0 25 25
- 0.230667 2 3 cbr 1000 ------- 14 0.0 3.0 25 25
r 0.231333 0 1 cbr 1000 ------- 14 0.0 3.0 27 27
+ 0.231333 1 2 cbr 1000 ------- 14 0.0 3.0 27 27
- 0.231333 1 2 cbr 1000 ------- 14 0.0 3.0 27 27
+ 0.232 0 1 cbr 1000 ------- 14 0.0 3.0 29 29
- 0.232 0 1 cbr 1000 ------- 14 0.0 3.0 29 29
r 0.238 2 3 cbr 1000 ------- 14 0.0 3.0 24 24
r 0.238667 1 2 cbr 1000 ------- 14 0.0 3.0 26 26
+ 0.238667 2 3 cbr 1000 ------- 14 0.0 3.0 26 26
- 0.238667 2 3 cbr 1000 ------- 14 0.0 3.0 26 26
r 0.239333 0 1 cbr 1000 ------- 14 0.0 3.0 28 28
+ 0.239333 1 2 cbr 1000 ------- 14 0.0 3.0 28 28
- 0.239333 1 2 cbr 1000 ------- 14 0.0 3.0 28 28
+ 0.24 0 1 cbr 1000 ------- 14 0.0 3.0 30 30
- 0.24 0 1 cbr 1000 ------- 14 0.0 3.0 30 30
r 0.246 2 3 cbr 1000 ------- 14 0.0 3.0 25 25
r 0.246667 1 2 cbr 1000 ------- 14 0.0 3.0 27 27
+ 0.246667 2 3 cbr 1000 ------- 14 0.0 3.0 27 27
- 0.246667 2 3 cbr 1000 ------- 14 0.0 3.0 27 27
r 0.247333 0 1 cbr 1000 ------- 14 0.0 3.0 29 29
+ 0.247333 1 2 cbr 1000 ------- 14 0.0 3.0 29 29
- 0.247333 1 2 cbr 1000 ------- 14 0.0 3.0 29 29
+ 0.248 0 1 cbr 1000 ------- 14 0.0 3.0 31 31
- 0.248 0 1 cbr 1000 ------- 14 0.0 3.0 31 31
r 0.254 2 3 cbr 1000 ------- 14 0.0 3.0 26 26
r 0.254667 1 2 cbr 1000 ------- 14 0.0 3.0 28 28
+ 0.254667 2 3 cbr 1000 ------- 14 0.0 3.0 28 28
- 0.254667 2 3 cbr 1000 ------- 14 0.0 3.0 28 28
r 0.255333 0 1 cbr 1000 ------- 14 0.0 3.0 30 30
+ 0.255333 1 2 cbr 1000 ------- 14 0.0 3.0 30 30
- 0.255333 1 2 cbr 1000 ------- 14 0.0 3.0 30 30
+ 0.256 0 1 cbr 1000 ------- 14 0.0 3.0 32 32
- 0.256 0 1 cbr 1000 ------- 14 0.0 3.0 32 32
r 0.262 2 3 cbr 1000 ------- 14 0.0 3.0 27 27
r 0.262667 1 2 cbr 1000 ------- 14 0.0 3.0 29 29
+ 0.262667 2 3 cbr 1000 ------- 14 0.0 3.0 29 29
- 0.262667 2 3 cbr 1000 ------- 14 0.0 3.0 29 29
r 0.263333 0 1 cbr 1000 ------- 14 0.0 3.0 31 31
+ 0.263333 1 2 cbr 1000 ------- 14 0.0 3.0 31 31
- 0.263333 1 2 cbr 1000 ------- 14 0.0 3.0 31 31
+ 0.264 0 1 cbr 1000 ------- 14 0.0 3.0 33 33
- 0.264 0 1 cbr 1000 ------- 14 0.0 3.0 33 33
r 0.27 2 3 cbr 1000 ------- 14 0.0 3.0 28 28
r 0.270667 1 2 cbr 1000 ------- 14 0.0 3.0 30 30
+ 0.270667 2 3 cbr 1000 ------- 14 0.0 3.0 30 30
- 0.270667 2 3 cbr 1000 ------- 14 0.0 3.0 30 30
r 0.271333 0 1 cbr 1000 ------- 14 0.0 3.0 32 32
+ 0.271333 1 2 cbr 1000 ------- 14 0.0 3.0 32 32
- 0.271333 1 2 cbr 1000 ------- 14 0.0 3.0 32 32
+ 0.272 0 1 cbr 1000 ------- 14 0.0 3.0 34 34
- 0.272 0 1 cbr 1000 ------- 14 0.0 3.0 34 34
r 0.278 2 3 cbr 1000 ------- 14 0.0 3.0 29 29
r 0.278667 1 2 cbr 1000 ------- 14 0.0 3.0 31 31
+ 0.278667 2 3 cbr 1000 ------- 14 0.0 3.0 31 31
- 0.278667 2 3 cbr 1000 ------- 14 0.0 3.0 31 31
r 0.279333 0 1 cbr 1000 ------- 14 0.0 3.0 33 33
+ 0.279333 1 2 cbr 1000 ------- 14 0.0 3.0 33 33
- 0.279333 1 2 cbr 1000 ------- 14 0.0 3.0 33 33
+ 0.28 0 1 cbr 1000 ------- 14 0.0 3.0 35 35
- 0.28 0 1 cbr 1000 ------- 14 0.0 3.0 35 35
r 0.286 2 3 cbr 1000 ------- 14 0.0 3.0 30 30
r 0.286667 1 2 cbr 1000 ------- 14 0.0 3.0 32 32
+ 0.286667 2 3 cbr 1000 ------- 14 0.0 3.0 32 32
- 0.286667 2 3 cbr 1000 ------- 14 0.0 3.0 32 32
r 0.287333 0 1 cbr 1000 ------- 14 0.0 3.0 34 34
+ 0.287333 1 2 cbr 1000 ------- 14 0.0 3.0 34 34
- 0.287333 1 2 cbr 1000 ------- 14 0.0 3.0 34 34
+ 0.288 0 1 cbr 1000 ------- 14 0.0 3.0 36 36
- 0.288 0 1 cbr 1000 ------- 14 0.0 3.0 36 36
r 0.294 2 3 cbr 1000 ------- 14 0.0 3.0 31 31
r 0.294667 1 2 cbr 1000 ------- 14 0.0 3.0 33 33
+ 0.294667 2 3 cbr 1000 ------- 14 0.0 3.0 33 33
- 0.294667 2 3 cbr 1000 ------- 14 0.0 3.0 33 33
r 0.295333 0 1 cbr 1000 ------- 14 0.0 3.0 35 35
+ 0.295333 1 2 cbr 1000 ------- 14 0.0 3.0 35 35
- 0.295333 1 2 cbr 1000 ------- 14 0.0 3.0 35 35
+ 0.296 0 1 cbr 1000 ------- 14 0.0 3.0 37 37
- 0.296 0 1 cbr 1000 ------- 14 0.0 3.0 37 37
+ 0.3 4 1 cbr 1000 ------- 56 4.0 5.0 0 38
- 0.3 4 1 cbr 1000 ------- 56 4.0 5.0 0 38
r 0.302 2 3 cbr 1000 ------- 14 0.0 3.0 32 32
r 0.302667 1 2 cbr 1000 ------- 14 0.0 3.0 34 34
+ 0.302667 2 3 cbr 1000 ------- 14 0.0 3.0 34 34
- 0.302667 2 3 cbr 1000 ------- 14 0.0 3.0 34 34
r 0.303333 0 1 cbr 1000 ------- 14 0.0 3.0 36 36
+ 0.303333 1 2 cbr 1000 ------- 14 0.0 3.0 36 36
- 0.303333 1 2 cbr 1000 ------- 14 0.0 3.0 36 36
+ 0.304 0 1 cbr 1000 ------- 14 0.0 3.0 38 39
- 0.304 0 1 cbr 1000 ------- 14 0.0 3.0 38 39
+ 0.308 4 1 cbr 1000 ------- 56 4.0 5.0 1 40
- 0.308 4 1 cbr 1000 ------- 56 4.0 5.0 1 40
r 0.31 2 3 cbr 1000 ------- 14 0.0 3.0 33 33
r 0.310667 1 2 cbr 1000 ------- 14 0.0 3.0 35 35
+ 0.310667 2 3 cbr 1000 ------- 14 0.0 3.0 35 35
- 0.310667 2 3 cbr 1000 ------- 14 0.0 3.0 35 35
r 0.311333 0 1 cbr 1000 ------- 14 0.0 3.0 37 37
+ 0.311333 1 2 cbr 1000 ------- 14 0.0 3.0 37 37
- 0.311333 1 2 cbr 1000 ------- 14 0.0 3.0 37 37
+ 0.312 0 1 cbr 1000 ------- 14 0.0 3.0 39 41
- 0.312 0 1 cbr 1000 ------- 14 0.0 3.0 39 41
r 0.315333 4 1 cbr 1000 ------- 56 4.0 5.0 0 38
+ 0.315333 1 2 cbr 1000 ------- 56 4.0 5.0 0 38
+ 0.316 4 1 cbr 1000 ------- 56 4.0 5.0 2 42
- 0.316 4 1 cbr 1000 ------- 56 4.0 5.0 2 42
- 0.316667 1 2 cbr 1000 ------- 56 4.0 5.0 0 38
r 0.318 2 3 cbr 1000 ------- 14 0.0 3.0 34 34
r 0.318667 1 2 cbr 1000 ------- 14 0.0 3.0 36 36
+ 0.318667 2 3 cbr 1000 ------- 14 0.0 3.0 36 36
- 0.318667 2 3 cbr 1000 ------- 14 0.0 3.0 36 36
r 0.319333 0 1 cbr 1000 ------- 14 0.0 3.0 38 39
+ 0.319333 1 2 cbr 1000 ------- 14 0.0 3.0 38 39
+ 0.32 0 1 cbr 1000 ------- 14 0.0 3.0 40 43
- 0.32 0 1 cbr 1000 ------- 14 0.0 3.0 40 43
- 0.322 1 2 cbr 1000 ------- 14 0.0 3.0 38 39
r 0.323333 4 1 cbr 1000 ------- 56 4.0 5.0 1 40
+ 0.323333 1 2 cbr 1000 ------- 56 4.0 5.0 1 40
+ 0.324 4 1 cbr 1000 ------- 56 4.0 5.0 3 44
- 0.324 4 1 cbr 1000 ------- 56 4.0 5.0 3 44
r 0.326 2 3 cbr 1000 ------- 14 0.0 3.0 35 35
r 0.326667 1 2 cbr 1000 ------- 14 0.0 3.0 37 37
+ 0.326667 2 3 cbr 1000 ------- 14 0.0 3.0 37 37
- 0.326667 2 3 cbr 1000 ------- 14 0.0 3.0 37 37
r 0.327333 0 1 cbr 1000 ------- 14 0.0 3.0 39 41
+ 0.327333 1 2 cbr 1000 ------- 14 0.0 3.0 39 41
- 0.327333 1 2 cbr 1000 ------- 56 4.0 5.0 1 40
+ 0.328 0 1 cbr 1000 ------- 14 0.0 3.0 41 45
- 0.328 0 1 cbr 1000 ------- 14 0.0 3.0 41 45
r 0.331333 4 1 cbr 1000 ------- 56 4.0 5.0 2 42
+ 0.331333 1 2 cbr 1000 ------- 56 4.0 5.0 2 42
+ 0.332 4 1 cbr 1000 ------- 56 4.0 5.0 4 46
- 0.332 4 1 cbr 1000 ------- 56 4.0 5.0 4 46
r 0.332 1 2 cbr 1000 ------- 56 4.0 5.0 0 38
+ 0.332 2 5 cbr 1000 ------- 56 4.0 5.0 0 38
- 0.332 2 5 cbr 1000 ------- 56 4.0 5.0 0 38
- 0.332667 1 2 cbr 1000 ------- 14 0.0 3.0 39 41
r 0.334 2 3 cbr 1000 ------- 14 0.0 3.0 36 36
r 0.335333 0 1 cbr 1000 ------- 14 0.0 3.0 40 43
+ 0.335333 1 2 cbr 1000 ------- 14 0.0 3.0 40 43
+ 0.336 0 1 cbr 1000 ------- 14 0.0 3.0 42 47
- 0.336 0 1 cbr 1000 ------- 14 0.0 3.0 42 47
r 0.337333 1 2 cbr 1000 ------- 14 0.0 3.0 38 39
+ 0.337333 2 3 cbr 1000 ------- 14 0.0 3.0 38 39
- 0.337333 2 3 cbr 1000 ------- 14 0.0 3.0 38 39
- 0.338 1 2 cbr 1000 ------- 56 4.0 5.0 2 42
r 0.339333 4 1 cbr 1000 ------- 56 4.0 5.0 3 44
+ 0.339333 1 2 cbr 1000 ------- 56 4.0 5.0 3 44
+ 0.34 4 1 cbr 1000 ------- 56 4.0 5.0 5 48
- 0.34 4 1 cbr 1000 ------- 56 4.0 5.0 5 48
r 0.342 2 3 cbr 1000 ------- 14 0.0 3.0 37 37
r 0.342667 1 2 cbr 1000 ------- 56 4.0 5.0 1 40
+ 0.342667 2 5 cbr 1000 ------- 56 4.0 5.0 1 40
- 0.342667 2 5 cbr 1000 ------- 56 4.0 5.0 1 40
r 0.343333 0 1 cbr 1000 ------- 14 0.0 3.0 41 45
+ 0.343333 1 2 cbr 1000 ------- 14 0.0 3.0 41 45
- 0.343333 1 2 cbr 1000 ------- 14 0.0 3.0 40 43
+ 0.344 0 1 cbr 1000 ------- 14 0.0 3.0 43 49
- 0.344 0 1 cbr 1000 ------- 14 0.0 3.0 43 49
r 0.347333 4 1 cbr 1000 ------- 56 4.0 5.0 4 46
+ 0.347333 1 2 cbr 1000 ------- 56 4.0 5.0 4 46
r 0.347333 2 5 cbr 1000 ------- 56 4.0 5.0 0 38
+ 0.348 4 1 cbr 1000 ------- 56 4.0 5.0 6 50
- 0.348 4 1 cbr 1000 ------- 56 4.0 5.0 6 50
r 0.348 1 2 cbr 1000 ------- 14 0.0 3.0 39 41
+ 0.348 2 3 cbr 1000 ------- 14 0.0 3.0 39 41
- 0.348 2 3 cbr 1000 ------- 14 0.0 3.0 39 41
- 0.348667 1 2 cbr 1000 ------- 56 4.0 5.0 3 44
r 0.351333 0 1 cbr 1000 ------- 14 0.0 3.0 42 47
+ 0.351333 1 2 cbr 1000 ------- 14 0.0 3.0 42 47
+ 0.352 0 1 cbr 1000 ------- 14 0.0 3.0 44 51
- 0.352 0 1 cbr 1000 ------- 14 0.0 3.0 44 51
r 0.352667 2 3 cbr 1000 ------- 14 0.0 3.0 38 39
r 0.353333 1 2 cbr 1000 ------- 56 4.0 5.0 2 42
+ 0.353333 2 5 cbr 1000 ------- 56 4.0 5.0 2 42
- 0.353333 2 5 cbr 1000 ------- 56 4.0 5.0 2 42
- 0.354 1 2 cbr 1000 ------- 14 0.0 3.0 41 45
r 0.355333 4 1 cbr 1000 ------- 56 4.0 5.0 5 48
+ 0.355333 1 2 cbr 1000 ------- 56 4.0 5.0 5 48
+ 0.356 4 1 cbr 1000 ------- 56 4.0 5.0 7 52
- 0.356 4 1 cbr 1000 ------- 56 4.0 5.0 7 52
r 0.358 2 5 cbr 1000 ------- 56 4.0 5.0 1 40
r 0.358667 1 2 cbr 1000 ------- 14 0.0 3.0 40 43
+ 0.358667 2 3 cbr 1000 ------- 14 0.0 3.0 40 43
- 0.358667 2 3 cbr 1000 ------- 14 0.0 3.0 40 43
r 0.359333 0 1 cbr 1000 ------- 14 0.0 3.0 43 49
+ 0.359333 1 2 cbr 1000 ------- 14 0.0 3.0 43 49
- 0.359333 1 2 cbr 1000 ------- 56 4.0 5.0 4 46
+ 0.36 0 1 cbr 1000 ------- 14 0.0 3.0 45 53
- 0.36 0 1 cbr 1000 ------- 14 0.0 3.0 45 53
r 0.363333 4 1 cbr 1000 ------- 56 4.0 5.0 6 50
+ 0.363333 1 2 cbr 1000 ------- 56 4.0 5.0 6 50
r 0.363333 2 3 cbr 1000 ------- 14 0.0 3.0 39 41
+ 0.364 4 1 cbr 1000 ------- 56 4.0 5.0 8 54
- 0.364 4 1 cbr 1000 ------- 56 4.0 5.0 8 54
r 0.364 1 2 cbr 1000 ------- 56 4.0 5.0 3 44
+ 0.364 2 5 cbr 1000 ------- 56 4.0 5.0 3 44
- 0.364 2 5 cbr 1000 ------- 56 4.0 5.0 3 44
- 0.364667 1 2 cbr 1000 ------- 14 0.0 3.0 42 47
r 0.367333 0 1 cbr 1000 ------- 14 0.0 3.0 44 51
+ 0.367333 1 2 cbr 1000 ------- 14 0.0 3.0 44 51
+ 0.368 0 1 cbr 1000 ------- 14 0.0 3.0 46 55
- 0.368 0 1 cbr 1000 ------- 14 0.0 3.0 46 55
r 0.368667 2 5 cbr 1000 ------- 56 4.0 5.0 2 42
r 0.369333 1 2 cbr 1000 ------- 14 0.0 3.0 41 45
+ 0.369333 2 3 cbr 1000 ------- 14 0.0 3.0 41 45
- 0.369333 2 3 cbr 1000 ------- 14 0.0 3.0 41 45
- 0.37 1 2 cbr 1000 ------- 56 4.0 5.0 5 48
r 0.371333 4 1 cbr 1000 ------- 56 4.0 5.0 7 52
+ 0.371333 1 2 cbr 1000 ------- 56 4.0 5.0 7 52
+ 0.372 4 1 cbr 1000 ------- 56 4.0 5.0 9 56
- 0.372 4 1 cbr 1000 ------- 56 4.0 5.0 9 56
r 0.374 2 3 cbr 1000 ------- 14 0.0 3.0 40 43
r 0.374667 1 2 cbr 1000 ------- 56 4.0 5.0 4 46
+ 0.374667 2 5 cbr 1000 ------- 56 4.0 5.0 4 46
- 0.374667 2 5 cbr 1000 ------- 56 4.0 5.0 4 46
r 0.375333 0 1 cbr 1000 ------- 14 0.0 3.0 45 53
+ 0.375333 1 2 cbr 1000 ------- 14 0.0 3.0 45 53
- 0.375333 1 2 cbr 1000 ------- 14 0.0 3.0 43 49
+ 0.376 0 1 cbr 1000 ------- 14 0.0 3.0 47 57
- 0.376 0 1 cbr 1000 ------- 14 0.0 3.0 47 57
r 0.379333 4 1 cbr 1000 ------- 56 4.0 5.0 8 54
+ 0.379333 1 2 cbr 1000 ------- 56 4.0 5.0 8 54
r 0.379333 2 5 cbr 1000 ------- 56 4.0 5.0 3 44
+ 0.38 4 1 cbr 1000 ------- 56 4.0 5.0 10 58
- 0.38 4 1 cbr 1000 ------- 56 4.0 5.0 10 58
r 0.38 1 2 cbr 1000 ------- 14 0.0 3.0 42 47
+ 0.38 2 3 cbr 1000 ------- 14 0.0 3.0 42 47
- 0.38 2 3 cbr 1000 ------- 14 0.0 3.0 42 47
- 0.380667 1 2 cbr 1000 ------- 56 4.0 5.0 6 50
r 0.383333 0 1 cbr 1000 ------- 14 0.0 3.0 46 55
+ 0.383333 1 2 cbr 1000 ------- 14 0.0 3.0 46 55
+ 0.384 0 1 cbr 1000 ------- 14 0.0 3.0 48 59
- 0.384 0 1 cbr 1000 ------- 14 0.0 3.0 48 59
r 0.384667 2 3 cbr 1000 ------- 14 0.0 3.0 41 45
r 0.385333 1 2 cbr 1000 ------- 56 4.0 5.0 5 48
+ 0.385333 2 5 cbr 1000 ------- 56 4.0 5.0 5 48
- 0.385333 2 5 cbr 1000 ------- 56 4.0 5.0 5 48
- 0.386 1 2 cbr 1000 ------- 14 0.0 3.0 44 51
r 0.387333 4 1 cbr 1000 ------- 56 4.0 5.0 9 56
+ 0.387333 1 2 cbr 1000 ------- 56 4.0 5.0 9 56
+ 0.388 4 1 cbr 1000 ------- 56 4.0 5.0 11 60
- 0.388 4 1 cbr 1000 ------- 56 4.0 5.0 11 60
r 0.39 2 5 cbr 1000 ------- 56 4.0 5.0 4 46
r 0.390667 1 2 cbr 1000 ------- 14 0.0 3.0 43 49
+ 0.390667 2 3 cbr 1000 ------- 14 0.0 3.0 43 49
- 0.390667 2 3 cbr 1000 ------- 14 0.0 3.0 43 49
r 0.391333 0 1 cbr 1000 ------- 14 0.0 3.0 47 57
+ 0.391333 1 2 cbr 1000 ------- 14 0.0 3.0 47 57
- 0.391333 1 2 cbr 1000 ------- 56 4.0 5.0 7 52
+ 0.392 0 1 cbr 1000 ------- 14 0.0 3.0 49 61
- 0.392 0 1 cbr 1000 ------- 14 0.0 3.0 49 61
r 0.395333 4 1 cbr 1000 ------- 56 4.0 5.0 10 58
+ 0.395333 1 2 cbr 1000 ------- 56 4.0 5.0 10 58
r 0.395333 2 3 cbr 1000 ------- 14 0.0 3.0 42 47
+ 0.396 4 1 cbr 1000 ------- 56 4.0 5.0 12 62
- 0.396 4 1 cbr 1000 ------- 56 4.0 5.0 12 62
r 0.396 1 2 cbr 1000 ------- 56 4.0 5.0 6 50
+ 0.396 2 5 cbr 1000 ------- 56 4.0 5.0 6 50
- 0.396 2 5 cbr 1000 ------- 56 4.0 5.0 6 50
- 0.396667 1 2 cbr 1000 ------- 14 0.0 3.0 45 53
r 0.399333 0 1 cbr 1000 ------- 14 0.0 3.0 48 59
+ 0.399333 1 2 cbr 1000 ------- 14 0.0 3.0 48 59
+ 0.4 0 1 cbr 1000 ------- 14 0.0 3.0 50 63
- 0.4 0 1 cbr 1000 ------- 14 0.0 3.0 50 63
r 0.400667 2 5 cbr 1000 ------- 56 4.0 5.0 5 48
r 0.401333 1 2 cbr 1000 ------- 14 0.0 3.0 44 51
+ 0.401333 2 3 cbr 1000 ------- 14 0.0 3.0 44 51
- 0.401333 2 3 cbr 1000 ------- 14 0.0 3.0 44 51
- 0.402 1 2 cbr 1000 ------- 56 4.0 5.0 8 54
r 0.403333 4 1 cbr 1000 ------- 56 4.0 5.0 11 60
+ 0.403333 1 2 cbr 1000 ------- 56 4.0 5.0 11 60
+ 0.404 4 1 cbr 1000 ------- 56 4.0 5.0 13 64
- 0.404 4 1 cbr 1000 ------- 56 4.0 5.0 13 64
r 0.406 2 3 cbr 1000 ------- 14 0.0 3.0 43 49
r 0.406667 1 2 cbr 1000 ------- 56 4.0 5.0 7 52
+ 0.406667 2 5 cbr 1000 ------- 56 4.0 5.0 7 52
- 0.406667 2 5 cbr 1000 ------- 56 4.0 5.0 7 52
r 0.407333 0 1 cbr 1000 ------- 14 0.0 3.0 49 61
+ 0.407333 1 2 cbr 1000 ------- 14 0.0 3.0 49 61
- 0.407333 1 2 cbr 1000 ------- 14 0.0 3.0 46 55
+ 0.408 0 1 cbr 1000 ------- 14 0.0 3.0 51 65
- 0.408 0 1 cbr 1000 ------- 14 0.0 3.0 51 65
r 0.411333 4 1 cbr 1000 ------- 56 4.0 5.0 12 62
+ 0.411333 1 2 cbr 1000 ------- 56 4.0 5.0 12 62
r 0.411333 2 5 cbr 1000 ------- 56 4.0 5.0 6 50
+ 0.412 4 1 cbr 1000 ------- 56 4.0 5.0 14 66
- 0.412 4 1 cbr 1000 ------- 56 4.0 5.0 14 66
r 0.412 1 2 cbr 1000 ------- 14 0.0 3.0 45 53
+ 0.412 2 3 cbr 1000 ------- 14 0.0 3.0 45 53
- 0.412 2 3 cbr 1000 ------- 14 0.0 3.0 45 53
- 0.412667 1 2 cbr 1000 ------- 56 4.0 5.0 9 56
r 0.415333 0 1 cbr 1000 ------- 14 0.0 3.0 50 63
+ 0.415333 1 2 cbr 1000 ------- 14 0.0 3.0 50 63
+ 0.416 0 1 cbr 1000 ------- 14 0.0 3.0 52 67
- 0.416 0 1 cbr 1000 ------- 14 0.0 3.0 52 67
r 0.416667 2 3 cbr 1000 ------- 14 0.0 3.0 44 51
r 0.417333 1 2 cbr 1000 ------- 56 4.0 5.0 8 54
+ 0.417333 2 5 cbr 1000 ------- 56 4.0 5.0 8 54
- 0.417333 2 5 cbr 1000 ------- 56 4.0 5.0 8 54
- 0.418 1 2 cbr 1000 ------- 14 0.0 3.0 47 57
r 0.419333 4 1 cbr 1000 ------- 56 4.0 5.0 13 64
+ 0.419333 1 2 cbr 1000 ------- 56 4.0 5.0 13 64
+ 0.42 4 1 cbr 1000 ------- 56 4.0 5.0 15 68
- 0.42 4 1 cbr 1000 ------- 56 4.0 5.0 15 68
r 0.422 2 5 cbr 1000 ------- 56 4.0 5.0 7 52
r 0.422667 1 2 cbr 1000 ------- 14 0.0 3.0 46 55
+ 0.422667 2 3 cbr 1000 ------- 14 0.0 3.0 46 55
- 0.422667 2 3 cbr 1000 ------- 14 0.0 3.0 46 55
r 0.423333 0 1 cbr 1000 ------- 14 0.0 3.0 51 65
+ 0.423333 1 2 cbr 1000 ------- 14 0.0 3.0 51 65
- 0.423333 1 2 cbr 1000 ------- 56 4.0 5.0 10 58
+ 0.424 0 1 cbr 1000 ------- 14 0.0 3.0 53 69
- 0.424 0 1 cbr 1000 ------- 14 0.0 3.0 53 69
r 0.427333 4 1 cbr 1000 ------- 56 4.0 5.0 14 66
+ 0.427333 1 2 cbr 1000 ------- 56 4.0 5.0 14 66
r 0.427333 2 3 cbr 1000 ------- 14 0.0 3.0 45 53
+ 0.428 4 1 cbr 1000 ------- 56 4.0 5.0 16 70
- 0.428 4 1 cbr 1000 ------- 56 4.0 5.0 16 70
r 0.428 1 2 cbr 1000 ------- 56 4.0 5.0 9 56
+ 0.428 2 5 cbr 1000 ------- 56 4.0 5.0 9 56
- 0.428 2 5 cbr 1000 ------- 56 4.0 5.0 9 56
- 0.428667 1 2 cbr 1000 ------- 14 0.0 3.0 48 59
r 0.431333 0 1 cbr 1000 ------- 14 0.0 3.0 52 67
+ 0.431333 1 2 cbr 1000 ------- 14 0.0 3.0 52 67
+ 0.432 0 1 cbr 1000 ------- 14 0.0 3.0 54 71
- 0.432 0 1 cbr 1000 ------- 14 0.0 3.0 54 71
r 0.432667 2 5 cbr 1000 ------- 56 4.0 5.0 8 54
r 0.433333 1 2 cbr 1000 ------- 14 0.0 3.0 47 57
+ 0.433333 2 3 cbr 1000 ------- 14 0.0 3.0 47 57
- 0.433333 2 3 cbr 1000 ------- 14 0.0 3.0 47 57
- 0.434 1 2 cbr 1000 ------- 56 4.0 5.0 11 60
r 0.435333 4 1 cbr 1000 ------- 56 4.0 5.0 15 68
+ 0.435333 1 2 cbr 1000 ------- 56 4.0 5.0 15 68
+ 0.436 4 1 cbr 1000 ------- 56 4.0 5.0 17 72
- 0.436 4 1 cbr 1000 ------- 56 4.0 5.0 17 72
r 0.438 2 3 cbr 1000 ------- 14 0.0 3.0 46 55
r 0.438667 1 2 cbr 1000 ------- 56 4.0 5.0 10 58
+ 0.438667 2 5 cbr 1000 ------- 56 4.0 5.0 10 58
- 0.438667 2 5 cbr 1000 ------- 56 4.0 5.0 10 58
r 0.439333 0 1 cbr 1000 ------- 14 0.0 3.0 53 69
+ 0.439333 1 2 cbr 1000 ------- 14 0.0 3.0 53 69
- 0.439333 1 2 cbr 1000 ------- 14 0.0 3.0 49 61
+ 0.44 0 1 cbr 1000 ------- 14 0.0 3.0 55 73
- 0.44 0 1 cbr 1000 ------- 14 0.0 3.0 55 73
r 0.443333 4 1 cbr 1000 ------- 56 4.0 5.0 16 70
+ 0.443333 1 2 cbr 1000 ------- 56 4.0 5.0 16 70
r 0.443333 2 5 cbr 1000 ------- 56 4.0 5.0 9 56
+ 0.444 4 1 cbr 1000 ------- 56 4.0 5.0 18 74
- 0.444 4 1 cbr 1000 ------- 56 4.0 5.0 18 74
r 0.444 1 2 cbr 1000 ------- 14 0.0 3.0 48 59
+ 0.444 2 3 cbr 1000 ------- 14 0.0 3.0 48 59
- 0.444 2 3 cbr 1000 ------- 14 0.0 3.0 48 59
- 0.444667 1 2 cbr 1000 ------- 56 4.0 5.0 12 62
r 0.447333 0 1 cbr 1000 ------- 14 0.0 3.0 54 71
+ 0.447333 1 2 cbr 1000 ------- 14 0.0 3.0 54 71
+ 0.448 0 1 cbr 1000 ------- 14 0.0 3.0 56 75
- 0.448 0 1 cbr 1000 ------- 14 0.0 3.0 56 75
r 0.448667 2 3 cbr 1000 ------- 14 0.0 3.0 47 57
r 0.449333 1 2 cbr 1000 ------- 56 4.0 5.0 11 60
+ 0.449333 2 5 cbr 1000 ------- 56 4.0 5.0 11 60
- 0.449333 2 5 cbr 1000 ------- 56 4.0 5.0 11 60
- 0.45 1 2 cbr 1000 ------- 14 0.0 3.0 50 63
r 0.451333 4 1 cbr 1000 ------- 56 4.0 5.0 17 72
+ 0.451333 1 2 cbr 1000 ------- 56 4.0 5.0 17 72
+ 0.452 4 1 cbr 1000 ------- 56 4.0 5.0 19 76
- 0.452 4 1 cbr 1000 ------- 56 4.0 5.0 19 76
r 0.454 2 5 cbr 1000 ------- 56 4.0 5.0 10 58
r 0.454667 1 2 cbr 1000 ------- 14 0.0 3.0 49 61
+ 0.454667 2 3 cbr 1000 ------- 14 0.0 3.0 49 61
- 0.454667 2 3 cbr 1000 ------- 14 0.0 3.0 49 61
r 0.455333 0 1 cbr 1000 ------- 14 0.0 3.0 55 73
+ 0.455333 1 2 cbr 1000 ------- 14 0.0 3.0 55 73
- 0.455333 1 2 cbr 1000 ------- 56 4.0 5.0 13 64
+ 0.456 0 1 cbr 1000 ------- 14 0.0 3.0 57 77
- 0.456 0 1 cbr 1000 ------- 14 0.0 3.0 57 77
r 0.459333 4 1 cbr 1000 ------- 56 4.0 5.0 18 74
+ 0.459333 1 2 cbr 1000 ------- 56 4.0 5.0 18 74
r 0.459333 2 3 cbr 1000 ------- 14 0.0 3.0 48 59
+ 0.46 4 1 cbr 1000 ------- 56 4.0 5.0 20 78
- 0.46 4 1 cbr 1000 ------- 56 4.0 5.0 20 78
r 0.46 1 2 cbr 1000 ------- 56 4.0 5.0 12 62
+ 0.46 2 5 cbr 1000 ------- 56 4.0 5.0 12 62
- 0.46 2 5 cbr 1000 ------- 56 4.0 5.0 12 62
- 0.460667 1 2 cbr 1000 ------- 14 0.0 3.0 51 65
r 0.463333 0 1 cbr 1000 ------- 14 0.0 3.0 56 75
+ 0.463333 1 2 cbr 1000 ------- 14 0.0 3.0 56 75
+ 0.464 0 1 cbr 1000 ------- 14 0.0 3.0 58 79
- 0.464 0 1 cbr 1000 ------- 14 0.0 3.0 58 79
r 0.464667 2 5 cbr 1000 ------- 56 4.0 5.0 11 60
r 0.465333 1 2 cbr 1000 ------- 14 0.0 3.0 50 63
+ 0.465333 2 3 cbr 1000 ------- 14 0.0 3.0 50 63
- 0.465333 2 3 cbr 1000 ------- 14 0.0 3.0 50 63
- 0.466 1 2 cbr 1000 ------- 56 4.0 5.0 14 66
r 0.467333 4 1 cbr 1000 ------- 56 4.0 5.0 19 76