+ 0.2 4 1 tcp 1000 ------- 56 4.0 5.0 0 0
- 0.2 4 1 tcp 1000 ------- 56 4.0 5.0 0 0
r 0.2108 4 1 tcp 1000 ------- 56 4.0 5.0 0 0
+ 0.2108 1 2 tcp 1000 ------- 56 4.0 5.0 0 0
- 0.2108 1 2 tcp 1000 ------- 56 4.0 5.0 0 0
r 0.2216 1 2 tcp 1000 ------- 56 4.0 5.0 0 0
+ 0.2216 2 5 tcp 1000 ------- 56 4.0 5.0 0 0
- 0.2216 2 5 tcp 1000 ------- 56 4.0 5.0 0 0
r 0.2324 2 5 tcp 1000 ------- 56 4.0 5.0 0 0
+ 0.2324 5 2 ack 40 ------- 56 5.0 4.0 0 1
- 0.2324 5 2 ack 40 ------- 56 5.0 4.0 0 1
r 0.242432 5 2 ack 40 ------- 56 5.0 4.0 0 1
+ 0.242432 2 1 ack 40 ------- 56 5.0 4.0 0 1
- 0.242432 2 1 ack 40 ------- 56 5.0 4.0 0 1
r 0.252464 2 1 ack 40 ------- 56 5.0 4.0 0 1
+ 0.252464 1 4 ack 40 ------- 56 5.0 4.0 0 1
- 0.252464 1 4 ack 40 ------- 56 5.0 4.0 0 1
r 0.262496 1 4 ack 40 ------- 56 5.0 4.0 0 1
+ 0.262496 4 1 tcp 1000 ------- 56 4.0 5.0 1 2
- 0.262496 4 1 tcp 1000 ------- 56 4.0 5.0 1 2
r 0.273296 4 1 tcp 1000 ------- 56 4.0 5.0 1 2
+ 0.273296 1 2 tcp 1000 ------- 56 4.0 5.0 1 2
- 0.273296 1 2 tcp 1000 ------- 56 4.0 5.0 1 2
r 0.284096 1 2 tcp 1000 ------- 56 4.0 5.0 1 2
+ 0.284096 2 5 tcp 1000 ------- 56 4.0 5.0 1 2
- 0.284096 2 5 tcp 1000 ------- 56 4.0 5.0 1 2
r 0.294896 2 5 tcp 1000 ------- 56 4.0 5.0 1 2
+ 0.294896 5 2 ack 40 ------- 56 5.0 4.0 1 3
- 0.294896 5 2 ack 40 ------- 56 5.0 4.0 1 3
r 0.304928 5 2 ack 40 ------- 56 5.0 4.0 1 3
+ 0.304928 2 1 ack 40 ------- 56 5.0 4.0 1 3
- 0.304928 2 1 ack 40 ------- 56 5.0 4.0 1 3
r 0.31496 2 1 ack 40 ------- 56 5.0 4.0 1 3
+ 0.31496 1 4 ack 40 ------- 56 5.0 4.0 1 3
- 0.31496 1 4 ack 40 ------- 56 5.0 4.0 1 3
r 0.324992 1 4 ack 40 ------- 56 5.0 4.0 1 3
+ 0.324992 4 1 tcp 1000 ------- 56 4.0 5.0 2 4
- 0.324992 4 1 tcp 1000 ------- 56 4.0 5.0 2 4
+ 0.324992 4 1 tcp 1000 ------- 56 4.0 5.0 3 5
+ 0.324992 4 1 tcp 1000 ------- 56 4.0 5.0 4 6
- 0.325792 4 1 tcp 1000 ------- 56 4.0 5.0 3 5
- 0.326592 4 1 tcp 1000 ------- 56 4.0 5.0 4 6
r 0.335792 4 1 tcp 1000 ------- 56 4.0 5.0 2 4
+ 0.335792 1 2 tcp 1000 ------- 56 4.0 5.0 2 4
- 0.335792 1 2 tcp 1000 ------- 56 4.0 5.0 2 4
r 0.336592 4 1 tcp 1000 ------- 56 4.0 5.0 3 5
+ 0.336592 1 2 tcp 1000 ------- 56 4.0 5.0 3 5
- 0.336592 1 2 tcp 1000 ------- 56 4.0 5.0 3 5
r 0.337392 4 1 tcp 1000 ------- 56 4.0 5.0 4 6
+ 0.337392 1 2 tcp 1000 ------- 56 4.0 5.0 4 6
- 0.337392 1 2 tcp 1000 ------- 56 4.0 5.0 4 6
r 0.346592 1 2 tcp 1000 ------- 56 4.0 5.0 2 4
+ 0.346592 2 5 tcp 1000 ------- 56 4.0 5.0 2 4
- 0.346592 2 5 tcp 1000 ------- 56 4.0 5.0 2 4
r 0.347392 1 2 tcp 1000 ------- 56 4.0 5.0 3 5
+ 0.347392 2 5 tcp 1000 ------- 56 4.0 5.0 3 5
- 0.347392 2 5 tcp 1000 ------- 56 4.0 5.0 3 5
r 0.348192 1 2 tcp 1000 ------- 56 4.0 5.0 4 6
+ 0.348192 2 5 tcp 1000 ------- 56 4.0 5.0 4 6
- 0.348192 2 5 tcp 1000 ------- 56 4.0 5.0 4 6
r 0.357392 2 5 tcp 1000 ------- 56 4.0 5.0 2 4
+ 0.357392 5 2 ack 40 ------- 56 5.0 4.0 2 7
- 0.357392 5 2 ack 40 ------- 56 5.0 4.0 2 7
r 0.358192 2 5 tcp 1000 ------- 56 4.0 5.0 3 5
+ 0.358192 5 2 ack 40 ------- 56 5.0 4.0 3 8
- 0.358192 5 2 ack 40 ------- 56 5.0 4.0 3 8
r 0.358992 2 5 tcp 1000 ------- 56 4.0 5.0 4 6
+ 0.358992 5 2 ack 40 ------- 56 5.0 4.0 4 9
- 0.358992 5 2 ack 40 ------- 56 5.0 4.0 4 9
r 0.367424 5 2 ack 40 ------- 56 5.0 4.0 2 7
+ 0.367424 2 1 ack 40 ------- 56 5.0 4.0 2 7
- 0.367424 2 1 ack 40 ------- 56 5.0 4.0 2 7
r 0.368224 5 2 ack 40 ------- 56 5.0 4.0 3 8
+ 0.368224 2 1 ack 40 ------- 56 5.0 4.0 3 8
- 0.368224 2 1 ack 40 ------- 56 5.0 4.0 3 8
r 0.369024 5 2 ack 40 ------- 56 5.0 4.0 4 9
+ 0.369024 2 1 ack 40 ------- 56 5.0 4.0 4 9
- 0.369024 2 1 ack 40 ------- 56 5.0 4.0 4 9
r 0.377456 2 1 ack 40 ------- 56 5.0 4.0 2 7
+ 0.377456 1 4 ack 40 ------- 56 5.0 4.0 2 7
- 0.377456 1 4 ack 40 ------- 56 5.0 4.0 2 7
r 0.378256 2 1 ack 40 ------- 56 5.0 4.0 3 8
+ 0.378256 1 4 ack 40 ------- 56 5.0 4.0 3 8
- 0.378256 1 4 ack 40 ------- 56 5.0 4.0 3 8
r 0.379056 2 1 ack 40 ------- 56 5.0 4.0 4 9
+ 0.379056 1 4 ack 40 ------- 56 5.0 4.0 4 9
- 0.379056 1 4 ack 40 ------- 56 5.0 4.0 4 9
r 0.387488 1 4 ack 40 ------- 56 5.0 4.0 2 7
+ 0.387488 4 1 tcp 1000 ------- 56 4.0 5.0 5 10
- 0.387488 4 1 tcp 1000 ------- 56 4.0 5.0 5 10
r 0.388288 1 4 ack 40 ------- 56 5.0 4.0 3 8
+ 0.388288 4 1 tcp 1000 ------- 56 4.0 5.0 6 11
- 0.388288 4 1 tcp 1000 ------- 56 4.0 5.0 6 11
r 0.389088 1 4 ack 40 ------- 56 5.0 4.0 4 9
+ 0.389088 4 1 tcp 1000 ------- 56 4.0 5.0 7 12
- 0.389088 4 1 tcp 1000 ------- 56 4.0 5.0 7 12
r 0.398288 4 1 tcp 1000 ------- 56 4.0 5.0 5 10
+ 0.398288 1 2 tcp 1000 ------- 56 4.0 5.0 5 10
- 0.398288 1 2 tcp 1000 ------- 56 4.0 5.0 5 10
r 0.399088 4 1 tcp 1000 ------- 56 4.0 5.0 6 11
+ 0.399088 1 2 tcp 1000 ------- 56 4.0 5.0 6 11
- 0.399088 1 2 tcp 1000 ------- 56 4.0 5.0 6 11
r 0.399888 4 1 tcp 1000 ------- 56 4.0 5.0 7 12
+ 0.399888 1 2 tcp 1000 ------- 56 4.0 5.0 7 12
- 0.399888 1 2 tcp 1000 ------- 56 4.0 5.0 7 12
r 0.409088 1 2 tcp 1000 ------- 56 4.0 5.0 5 10
+ 0.409088 2 5 tcp 1000 ------- 56 4.0 5.0 5 10
- 0.409088 2 5 tcp 1000 ------- 56 4.0 5.0 5 10
r 0.409888 1 2 tcp 1000 ------- 56 4.0 5.0 6 11
+ 0.409888 2 5 tcp 1000 ------- 56 4.0 5.0 6 11
- 0.409888 2 5 tcp 1000 ------- 56 4.0 5.0 6 11
r 0.410688 1 2 tcp 1000 ------- 56 4.0 5.0 7 12
+ 0.410688 2 5 tcp 1000 ------- 56 4.0 5.0 7 12
- 0.410688 2 5 tcp 1000 ------- 56 4.0 5.0 7 12
r 0.419888 2 5 tcp 1000 ------- 56 4.0 5.0 5 10
+ 0.419888 5 2 ack 40 ------- 56 5.0 4.0 5 13
- 0.419888 5 2 ack 40 ------- 56 5.0 4.0 5 13
r 0.420688 2 5 tcp 1000 ------- 56 4.0 5.0 6 11
+ 0.420688 5 2 ack 40 ------- 56 5.0 4.0 6 14
- 0.420688 5 2 ack 40 ------- 56 5.0 4.0 6 14
r 0.421488 2 5 tcp 1000 ------- 56 4.0 5.0 7 12
+ 0.421488 5 2 ack 40 ------- 56 5.0 4.0 7 15
- 0.421488 5 2 ack 40 ------- 56 5.0 4.0 7 15
r 0.42992 5 2 ack 40 ------- 56 5.0 4.0 5 13
+ 0.42992 2 1 ack 40 ------- 56 5.0 4.0 5 13
- 0.42992 2 1 ack 40 ------- 56 5.0 4.0 5 13
r 0.43072 5 2 ack 40 ------- 56 5.0 4.0 6 14
+ 0.43072 2 1 ack 40 ------- 56 5.0 4.0 6 14
- 0.43072 2 1 ack 40 ------- 56 5.0 4.0 6 14
r 0.43152 5 2 ack 40 ------- 56 5.0 4.0 7 15
+ 0.43152 2 1 ack 40 ------- 56 5.0 4.0 7 15
- 0.43152 2 1 ack 40 ------- 56 5.0 4.0 7 15
r 0.439952 2 1 ack 40 ------- 56 5.0 4.0 5 13
+ 0.439952 1 4 ack 40 ------- 56 5.0 4.0 5 13
- 0.439952 1 4 ack 40 ------- 56 5.0 4.0 5 13
r 0.440752 2 1 ack 40 ------- 56 5.0 4.0 6 14
+ 0.440752 1 4 ack 40 ------- 56 5.0 4.0 6 14
- 0.440752 1 4 ack 40 ------- 56 5.0 4.0 6 14
r 0.441552 2 1 ack 40 ------- 56 5.0 4.0 7 15
+ 0.441552 1 4 ack 40 ------- 56 5.0 4.0 7 15
- 0.441552 1 4 ack 40 ------- 56 5.0 4.0 7 15
r 0.449984 1 4 ack 40 ------- 56 5.0 4.0 5 13
+ 0.449984 4 1 tcp 1000 ------- 56 4.0 5.0 8 16
- 0.449984 4 1 tcp 1000 ------- 56 4.0 5.0 8 16
+ 0.449984 4 1 tcp 1000 ------- 56 4.0 5.0 9 17
r 0.450784 1 4 ack 40 ------- 56 5.0 4.0 6 14
+ 0.450784 4 1 tcp 1000 ------- 56 4.0 5.0 10 18
+ 0.450784 4 1 tcp 1000 ------- 56 4.0 5.0 11 19
- 0.450784 4 1 tcp 1000 ------- 56 4.0 5.0 9 17
r 0.451584 1 4 ack 40 ------- 56 5.0 4.0 7 15
+ 0.451584 4 1 tcp 1000 ------- 56 4.0 5.0 12 20
+ 0.451584 4 1 tcp 1000 ------- 56 4.0 5.0 13 21
- 0.451584 4 1 tcp 1000 ------- 56 4.0 5.0 10 18
- 0.452384 4 1 tcp 1000 ------- 56 4.0 5.0 11 19
- 0.453184 4 1 tcp 1000 ------- 56 4.0 5.0 12 20
- 0.453984 4 1 tcp 1000 ------- 56 4.0 5.0 13 21
r 0.460784 4 1 tcp 1000 ------- 56 4.0 5.0 8 16
+ 0.460784 1 2 tcp 1000 ------- 56 4.0 5.0 8 16
- 0.460784 1 2 tcp 1000 ------- 56 4.0 5.0 8 16
r 0.461584 4 1 tcp 1000 ------- 56 4.0 5.0 9 17
+ 0.461584 1 2 tcp 1000 ------- 56 4.0 5.0 9 17
- 0.461584 1 2 tcp 1000 ------- 56 4.0 5.0 9 17
r 0.462384 4 1 tcp 1000 ------- 56 4.0 5.0 10 18
+ 0.462384 1 2 tcp 1000 ------- 56 4.0 5.0 10 18
- 0.462384 1 2 tcp 1000 ------- 56 4.0 5.0 10 18
r 0.463184 4 1 tcp 1000 ------- 56 4.0 5.0 11 19
+ 0.463184 1 2 tcp 1000 ------- 56 4.0 5.0 11 19
- 0.463184 1 2 tcp 1000 ------- 56 4.0 5.0 11 19
r 0.463984 4 1 tcp 1000 ------- 56 4.0 5.0 12 20
+ 0.463984 1 2 tcp 1000 ------- 56 4.0 5.0 12 20
- 0.463984 1 2 tcp 1000 ------- 56 4.0 5.0 12 20
r 0.464784 4 1 tcp 1000 ------- 56 4.0 5.0 13 21
+ 0.464784 1 2 tcp 1000 ------- 56 4.0 5.0 13 21
- 0.464784 1 2 tcp 1000 ------- 56 4.0 5.0 13 21
r 0.471584 1 2 tcp 1000 ------- 56 4.0 5.0 8 16
+ 0.471584 2 5 tcp 1000 ------- 56 4.0 5.0 8 16
- 0.471584 2 5 tcp 1000 ------- 56 4.0 5.0 8 16
r 0.472384 1 2 tcp 1000 ------- 56 4.0 5.0 9 17
+ 0.472384 2 5 tcp 1000 ------- 56 4.0 5.0 9 17
- 0.472384 2 5 tcp 1000 ------- 56 4.0 5.0 9 17
r 0.473184 1 2 tcp 1000 ------- 56 4.0 5.0 10 18
+ 0.473184 2 5 tcp 1000 ------- 56 4.0 5.0 10 18
- 0.473184 2 5 tcp 1000 ------- 56 4.0 5.0 10 18
r 0.473984 1 2 tcp 1000 ------- 56 4.0 5.0 11 19
+ 0.473984 2 5 tcp 1000 ------- 56 4.0 5.0 11 19
- 0.473984 2 5 tcp 1000 ------- 56 4.0 5.0 11 19
r 0.474784 1 2 tcp 1000 ------- 56 4.0 5.0 12 20
+ 0.474784 2 5 tcp 1000 ------- 56 4.0 5.0 12 20
- 0.474784 2 5 tcp 1000 ------- 56 4.0 5.0 12 20
r 0.475584 1 2 tcp 1000 ------- 56 4.0 5.0 13 21
+ 0.475584 2 5 tcp 1000 ------- 56 4.0 5.0 13 21
- 0.475584 2 5 tcp 1000 ------- 56 4.0 5.0 13 21
r 0.482384 2 5 tcp 1000 ------- 56 4.0 5.0 8 16
+ 0.482384 5 2 ack 40 ------- 56 5.0 4.0 8 22
- 0.482384 5 2 ack 40 ------- 56 5.0 4.0 8 22
r 0.483184 2 5 tcp 1000 ------- 56 4.0 5.0 9 17
+ 0.483184 5 2 ack 40 ------- 56 5.0 4.0 9 23
- 0.483184 5 2 ack 40 ------- 56 5.0 4.0 9 23
r 0.483984 2 5 tcp 1000 ------- 56 4.0 5.0 10 18
+ 0.483984 5 2 ack 40 ------- 56 5.0 4.0 10 24
- 0.483984 5 2 ack 40 ------- 56 5.0 4.0 10 24
r 0.484784 2 5 tcp 1000 ------- 56 4.0 5.0 11 19
+ 0.484784 5 2 ack 40 ------- 56 5.0 4.0 11 25
- 0.484784 5 2 ack 40 ------- 56 5.0 4.0 11 25
r 0.485584 2 5 tcp 1000 ------- 56 4.0 5.0 12 20
+ 0.485584 5 2 ack 40 ------- 56 5.0 4.0 12 26
- 0.485584 5 2 ack 40 ------- 56 5.0 4.0 12 26
r 0.486384 2 5 tcp 1000 ------- 56 4.0 5.0 13 21
+ 0.486384 5 2 ack 40 ------- 56 5.0 4.0 13 27
- 0.486384 5 2 ack 40 ------- 56 5.0 4.0 13 27
r 0.492416 5 2 ack 40 ------- 56 5.0 4.0 8 22
+ 0.492416 2 1 ack 40 ------- 56 5.0 4.0 8 22
- 0.492416 2 1 ack 40 ------- 56 5.0 4.0 8 22
r 0.493216 5 2 ack 40 ------- 56 5.0 4.0 9 23
+ 0.493216 2 1 ack 40 ------- 56 5.0 4.0 9 23
- 0.493216 2 1 ack 40 ------- 56 5.0 4.0 9 23
r 0.494016 5 2 ack 40 ------- 56 5.0 4.0 10 24
+ 0.494016 2 1 ack 40 ------- 56 5.0 4.0 10 24
- 0.494016 2 1 ack 40 ------- 56 5.0 4.0 10 24
r 0.494816 5 2 ack 40 ------- 56 5.0 4.0 11 25
+ 0.494816 2 1 ack 40 ------- 56 5.0 4.0 11 25
- 0.494816 2 1 ack 40 ------- 56 5.0 4.0 11 25
r 0.495616 5 2 ack 40 ------- 56 5.0 4.0 12 26
+ 0.495616 2 1 ack 40 ------- 56 5.0 4.0 12 26
- 0.495616 2 1 ack 40 ------- 56 5.0 4.0 12 26
r 0.496416 5 2 ack 40 ------- 56 5.0 4.0 13 27
+ 0.496416 2 1 ack 40 ------- 56 5.0 4.0 13 27
- 0.496416 2 1 ack 40 ------- 56 5.0 4.0 13 27
r 0.502448 2 1 ack 40 ------- 56 5.0 4.0 8 22
+ 0.502448 1 4 ack 40 ------- 56 5.0 4.0 8 22
- 0.502448 1 4 ack 40 ------- 56 5.0 4.0 8 22
r 0.503248 2 1 ack 40 ------- 56 5.0 4.0 9 23
+ 0.503248 1 4 ack 40 ------- 56 5.0 4.0 9 23
- 0.503248 1 4 ack 40 ------- 56 5.0 4.0 9 23
r 0.504048 2 1 ack 40 ------- 56 5.0 4.0 10 24
+ 0.504048 1 4 ack 40 ------- 56 5.0 4.0 10 24
- 0.504048 1 4 ack 40 ------- 56 5.0 4.0 10 24
r 0.504848 2 1 ack 40 ------- 56 5.0 4.0 11 25
+ 0.504848 1 4 ack 40 ------- 56 5.0 4.0 11 25
- 0.504848 1 4 ack 40 ------- 56 5.0 4.0 11 25
r 0.505648 2 1 ack 40 ------- 56 5.0 4.0 12 26
+ 0.505648 1 4 ack 40 ------- 56 5.0 4.0 12 26
- 0.505648 1 4 ack 40 ------- 56 5.0 4.0 12 26
r 0.506448 2 1 ack 40 ------- 56 5.0 4.0 13 27
+ 0.506448 1 4 ack 40 ------- 56 5.0 4.0 13 27
- 0.506448 1 4 ack 40 ------- 56 5.0 4.0 13 27
r 0.51248 1 4 ack 40 ------- 56 5.0 4.0 8 22
+ 0.51248 4 1 tcp 1000 ------- 56 4.0 5.0 14 28
- 0.51248 4 1 tcp 1000 ------- 56 4.0 5.0 14 28
r 0.51328 1 4 ack 40 ------- 56 5.0 4.0 9 23
+ 0.51328 4 1 tcp 1000 ------- 56 4.0 5.0 15 29
- 0.51328 4 1 tcp 1000 ------- 56 4.0 5.0 15 29
r 0.51408 1 4 ack 40 ------- 56 5.0 4.0 10 24
+ 0.51408 4 1 tcp 1000 ------- 56 4.0 5.0 16 30
- 0.51408 4 1 tcp 1000 ------- 56 4.0 5.0 16 30
r 0.51488 1 4 ack 40 ------- 56 5.0 4.0 11 25
+ 0.51488 4 1 tcp 1000 ------- 56 4.0 5.0 17 31
- 0.51488 4 1 tcp 1000 ------- 56 4.0 5.0 17 31
r 0.51568 1 4 ack 40 ------- 56 5.0 4.0 12 26
+ 0.51568 4 1 tcp 1000 ------- 56 4.0 5.0 18 32
- 0.51568 4 1 tcp 1000 ------- 56 4.0 5.0 18 32
r 0.51648 1 4 ack 40 ------- 56 5.0 4.0 13 27
+ 0.51648 4 1 tcp 1000 ------- 56 4.0 5.0 19 33
- 0.51648 4 1 tcp 1000 ------- 56 4.0 5.0 19 33
r 0.52328 4 1 tcp 1000 ------- 56 4.0 5.0 14 28
+ 0.52328 1 2 tcp 1000 ------- 56 4.0 5.0 14 28
- 0.52328 1 2 tcp 1000 ------- 56 4.0 5.0 14 28
r 0.52408 4 1 tcp 1000 ------- 56 4.0 5.0 15 29
+ 0.52408 1 2 tcp 1000 ------- 56 4.0 5.0 15 29
- 0.52408 1 2 tcp 1000 ------- 56 4.0 5.0 15 29
r 0.52488 4 1 tcp 1000 ------- 56 4.0 5.0 16 30
+ 0.52488 1 2 tcp 1000 ------- 56 4.0 5.0 16 30
- 0.52488 1 2 tcp 1000 ------- 56 4.0 5.0 16 30
r 0.52568 4 1 tcp 1000 ------- 56 4.0 5.0 17 31
+ 0.52568 1 2 tcp 1000 ------- 56 4.0 5.0 17 31
- 0.52568 1 2 tcp 1000 ------- 56 4.0 5.0 17 31
r 0.52648 4 1 tcp 1000 ------- 56 4.0 5.0 18 32
+ 0.52648 1 2 tcp 1000 ------- 56 4.0 5.0 18 32
- 0.52648 1 2 tcp 1000 ------- 56 4.0 5.0 18 32
r 0.52728 4 1 tcp 1000 ------- 56 4.0 5.0 19 33
+ 0.52728 1 2 tcp 1000 ------- 56 4.0 5.0 19 33
- 0.52728 1 2 tcp 1000 ------- 56 4.0 5.0 19 33
r 0.53408 1 2 tcp 1000 ------- 56 4.0 5.0 14 28
+ 0.53408 2 5 tcp 1000 ------- 56 4.0 5.0 14 28
- 0.53408 2 5 tcp 1000 ------- 56 4.0 5.0 14 28
r 0.53488 1 2 tcp 1000 ------- 56 4.0 5.0 15 29
+ 0.53488 2 5 tcp 1000 ------- 56 4.0 5.0 15 29
- 0.53488 2 5 tcp 1000 ------- 56 4.0 5.0 15 29
r 0.53568 1 2 tcp 1000 ------- 56 4.0 5.0 16 30
+ 0.53568 2 5 tcp 1000 ------- 56 4.0 5.0 16 30
- 0.53568 2 5 tcp 1000 ------- 56 4.0 5.0 16 30
r 0.53648 1 2 tcp 1000 ------- 56 4.0 5.0 17 31
+ 0.53648 2 5 tcp 1000 ------- 56 4.0 5.0 17 31
- 0.53648 2 5 tcp 1000 ------- 56 4.0 5.0 17 31
r 0.53728 1 2 tcp 1000 ------- 56 4.0 5.0 18 32
+ 0.53728 2 5 tcp 1000 ------- 56 4.0 5.0 18 32
- 0.53728 2 5 tcp 1000 ------- 56 4.0 5.0 18 32
r 0.53808 1 2 tcp 1000 ------- 56 4.0 5.0 19 33
+ 0.53808 2 5 tcp 1000 ------- 56 4.0 5.0 19 33
- 0.53808 2 5 tcp 1000 ------- 56 4.0 5.0 19 33
r 0.54488 2 5 tcp 1000 ------- 56 4.0 5.0 14 28
+ 0.54488 5 2 ack 40 ------- 56 5.0 4.0 14 34
- 0.54488 5 2 ack 40 ------- 56 5.0 4.0 14 34
r 0.54568 2 5 tcp 1000 ------- 56 4.0 5.0 15 29
+ 0.54568 5 2 ack 40 ------- 56 5.0 4.0 15 35
- 0.54568 5 2 ack 40 ------- 56 5.0 4.0 15 35
r 0.54648 2 5 tcp 1000 ------- 56 4.0 5.0 16 30
+ 0.54648 5 2 ack 40 ------- 56 5.0 4.0 16 36
- 0.54648 5 2 ack 40 ------- 56 5.0 4.0 16 36
r 0.54728 2 5 tcp 1000 ------- 56 4.0 5.0 17 31
+ 0.54728 5 2 ack 40 ------- 56 5.0 4.0 17 37
- 0.54728 5 2 ack 40 ------- 56 5.0 4.0 17 37
r 0.54808 2 5 tcp 1000 ------- 56 4.0 5.0 18 32
+ 0.54808 5 2 ack 40 ------- 56 5.0 4.0 18 38
- 0.54808 5 2 ack 40 ------- 56 5.0 4.0 18 38
r 0.54888 2 5 tcp 1000 ------- 56 4.0 5.0 19 33
+ 0.54888 5 2 ack 40 ------- 56 5.0 4.0 19 39
- 0.54888 5 2 ack 40 ------- 56 5.0 4.0 19 39
r 0.554912 5 2 ack 40 ------- 56 5.0 4.0 14 34
+ 0.554912 2 1 ack 40 ------- 56 5.0 4.0 14 34
- 0.554912 2 1 ack 40 ------- 56 5.0 4.0 14 34
r 0.555712 5 2 ack 40 ------- 56 5.0 4.0 15 35
+ 0.555712 2 1 ack 40 ------- 56 5.0 4.0 15 35
- 0.555712 2 1 ack 40 ------- 56 5.0 4.0 15 35
r 0.556512 5 2 ack 40 ------- 56 5.0 4.0 16 36
+ 0.556512 2 1 ack 40 ------- 56 5.0 4.0 16 36
- 0.556512 2 1 ack 40 ------- 56 5.0 4.0 16 36
r 0.557312 5 2 ack 40 ------- 56 5.0 4.0 17 37
+ 0.557312 2 1 ack 40 ------- 56 5.0 4.0 17 37
- 0.557312 2 1 ack 40 ------- 56 5.0 4.0 17 37
r 0.558112 5 2 ack 40 ------- 56 5.0 4.0 18 38
+ 0.558112 2 1 ack 40 ------- 56 5.0 4.0 18 38
- 0.558112 2 1 ack 40 ------- 56 5.0 4.0 18 38
r 0.558912 5 2 ack 40 ------- 56 5.0 4.0 19 39
+ 0.558912 2 1 ack 40 ------- 56 5.0 4.0 19 39
- 0.558912 2 1 ack 40 ------- 56 5.0 4.0 19 39
r 0.564944 2 1 ack 40 ------- 56 5.0 4.0 14 34
+ 0.564944 1 4 ack 40 ------- 56 5.0 4.0 14 34
- 0.564944 1 4 ack 40 ------- 56 5.0 4.0 14 34
r 0.565744 2 1 ack 40 ------- 56 5.0 4.0 15 35
+ 0.565744 1 4 ack 40 ------- 56 5.0 4.0 15 35
- 0.565744 1 4 ack 40 ------- 56 5.0 4.0 15 35
r 0.566544 2 1 ack 40 ------- 56 5.0 4.0 16 36
+ 0.566544 1 4 ack 40 ------- 56 5.0 4.0 16 36
- 0.566544 1 4 ack 40 ------- 56 5.0 4.0 16 36
r 0.567344 2 1 ack 40 ------- 56 5.0 4.0 17 37
+ 0.567344 1 4 ack 40 ------- 56 5.0 4.0 17 37
- 0.567344 1 4 ack 40 ------- 56 5.0 4.0 17 37
r 0.568144 2 1 ack 40 ------- 56 5.0 4.0 18 38
+ 0.568144 1 4 ack 40 ------- 56 5.0 4.0 18 38
- 0.568144 1 4 ack 40 ------- 56 5.0 4.0 18 38
r 0.568944 2 1 ack 40 ------- 56 5.0 4.0 19 39
+ 0.568944 1 4 ack 40 ------- 56 5.0 4.0 19 39
- 0.568944 1 4 ack 40 ------- 56 5.0 4.0 19 39
r 0.574976 1 4 ack 40 ------- 56 5.0 4.0 14 34
+ 0.574976 4 1 tcp 1000 ------- 56 4.0 5.0 20 40
- 0.574976 4 1 tcp 1000 ------- 56 4.0 5.0 20 40
+ 0.574976 4 1 tcp 1000 ------- 56 4.0 5.0 21 41
r 0.575776 1 4 ack 40 ------- 56 5.0 4.0 15 35
+ 0.575776 4 1 tcp 1000 ------- 56 4.0 5.0 22 42
+ 0.575776 4 1 tcp 1000 ------- 56 4.0 5.0 23 43
- 0.575776 4 1 tcp 1000 ------- 56 4.0 5.0 21 41
r 0.576576 1 4 ack 40 ------- 56 5.0 4.0 16 36
+ 0.576576 4 1 tcp 1000 ------- 56 4.0 5.0 24 44
+ 0.576576 4 1 tcp 1000 ------- 56 4.0 5.0 25 45
- 0.576576 4 1 tcp 1000 ------- 56 4.0 5.0 22 42
r 0.577376 1 4 ack 40 ------- 56 5.0 4.0 17 37
+ 0.577376 4 1 tcp 1000 ------- 56 4.0 5.0 26 46
+ 0.577376 4 1 tcp 1000 ------- 56 4.0 5.0 27 47
- 0.577376 4 1 tcp 1000 ------- 56 4.0 5.0 23 43
r 0.578176 1 4 ack 40 ------- 56 5.0 4.0 18 38
+ 0.578176 4 1 tcp 1000 ------- 56 4.0 5.0 28 48
+ 0.578176 4 1 tcp 1000 ------- 56 4.0 5.0 29 49
- 0.578176 4 1 tcp 1000 ------- 56 4.0 5.0 24 44
r 0.578976 1 4 ack 40 ------- 56 5.0 4.0 19 39
+ 0.578976 4 1 tcp 1000 ------- 56 4.0 5.0 30 50
+ 0.578976 4 1 tcp 1000 ------- 56 4.0 5.0 31 51
- 0.578976 4 1 tcp 1000 ------- 56 4.0 5.0 25 45
- 0.579776 4 1 tcp 1000 ------- 56 4.0 5.0 26 46
- 0.580576 4 1 tcp 1000 ------- 56 4.0 5.0 27 47
- 0.581376 4 1 tcp 1000 ------- 56 4.0 5.0 28 48
- 0.582176 4 1 tcp 1000 ------- 56 4.0 5.0 29 49
- 0.582976 4 1 tcp 1000 ------- 56 4.0 5.0 30 50
- 0.583776 4 1 tcp 1000 ------- 56 4.0 5.0 31 51
r 0.585776 4 1 tcp 1000 ------- 56 4.0 5.0 20 40
+ 0.585776 1 2 tcp 1000 ------- 56 4.0 5.0 20 40
- 0.585776 1 2 tcp 1000 ------- 56 4.0 5.0 20 40
r 0.586576 4 1 tcp 1000 ------- 56 4.0 5.0 21 41
+ 0.586576 1 2 tcp 1000 ------- 56 4.0 5.0 21 41
- 0.586576 1 2 tcp 1000 ------- 56 4.0 5.0 21 41
r 0.587376 4 1 tcp 1000 ------- 56 4.0 5.0 22 42
+ 0.587376 1 2 tcp 1000 ------- 56 4.0 5.0 22 42
- 0.587376 1 2 tcp 1000 ------- 56 4.0 5.0 22 42
r 0.588176 4 1 tcp 1000 ------- 56 4.0 5.0 23 43
+ 0.588176 1 2 tcp 1000 ------- 56 4.0 5.0 23 43
- 0.588176 1 2 tcp 1000 ------- 56 4.0 5.0 23 43
r 0.588976 4 1 tcp 1000 ------- 56 4.0 5.0 24 44
+ 0.588976 1 2 tcp 1000 ------- 56 4.0 5.0 24 44
- 0.588976 1 2 tcp 1000 ------- 56 4.0 5.0 24 44
r 0.589776 4 1 tcp 1000 ------- 56 4.0 5.0 25 45
+ 0.589776 1 2 tcp 1000 ------- 56 4.0 5.0 25 45
- 0.589776 1 2 tcp 1000 ------- 56 4.0 5.0 25 45
r 0.590576 4 1 tcp 1000 ------- 56 4.0 5.0 26 46
+ 0.590576 1 2 tcp 1000 ------- 56 4.0 5.0 26 46
- 0.590576 1 2 tcp 1000 ------- 56 4.0 5.0 26 46
r 0.591376 4 1 tcp 1000 ------- 56 4.0 5.0 27 47
+ 0.591376 1 2 tcp 1000 ------- 56 4.0 5.0 27 47
- 0.591376 1 2 tcp 1000 ------- 56 4.0 5.0 27 47
r 0.592176 4 1 tcp 1000 ------- 56 4.0 5.0 28 48
+ 0.592176 1 2 tcp 1000 ------- 56 4.0 5.0 28 48
- 0.592176 1 2 tcp 1000 ------- 56 4.0 5.0 28 48
r 0.592976 4 1 tcp 1000 ------- 56 4.0 5.0 29 49
+ 0.592976 1 2 tcp 1000 ------- 56 4.0 5.0 29 49
- 0.592976 1 2 tcp 1000 ------- 56 4.0 5.0 29 49
r 0.593776 4 1 tcp 1000 ------- 56 4.0 5.0 30 50
+ 0.593776 1 2 tcp 1000 ------- 56 4.0 5.0 30 50
- 0.593776 1 2 tcp 1000 ------- 56 4.0 5.0 30 50
r 0.594576 4 1 tcp 1000 ------- 56 4.0 5.0 31 51
+ 0.594576 1 2 tcp 1000 ------- 56 4.0 5.0 31 51
- 0.594576 1 2 tcp 1000 ------- 56 4.0 5.0 31 51
r 0.596576 1 2 tcp 1000 ------- 56 4.0 5.0 20 40
+ 0.596576 2 5 tcp 1000 ------- 56 4.0 5.0 20 40
- 0.596576 2 5 tcp 1000 ------- 56 4.0 5.0 20 40
r 0.597376 1 2 tcp 1000 ------- 56 4.0 5.0 21 41
+ 0.597376 2 5 tcp 1000 ------- 56 4.0 5.0 21 41
- 0.597376 2 5 tcp 1000 ------- 56 4.0 5.0 21 41
r 0.598176 1 2 tcp 1000 ------- 56 4.0 5.0 22 42
+ 0.598176 2 5 tcp 1000 ------- 56 4.0 5.0 22 42
- 0.598176 2 5 tcp 1000 ------- 56 4.0 5.0 22 42
r 0.598976 1 2 tcp 1000 ------- 56 4.0 5.0 23 43
+ 0.598976 2 5 tcp 1000 ------- 56 4.0 5.0 23 43
- 0.598976 2 5 tcp 1000 ------- 56 4.0 5.0 23 43
r 0.599776 1 2 tcp 1000 ------- 56 4.0 5.0 24 44
+ 0.599776 2 5 tcp 1000 ------- 56 4.0 5.0 24 44
- 0.599776 2 5 tcp 1000 ------- 56 4.0 5.0 24 44
r 0.600576 1 2 tcp 1000 ------- 56 4.0 5.0 25 45
+ 0.600576 2 5 tcp 1000 ------- 56 4.0 5.0 25 45
- 0.600576 2 5 tcp 1000 ------- 56 4.0 5.0 25 45
r 0.601376 1 2 tcp 1000 ------- 56 4.0 5.0 26 46
+ 0.601376 2 5 tcp 1000 ------- 56 4.0 5.0 26 46
- 0.601376 2 5 tcp 1000 ------- 56 4.0 5.0 26 46
r 0.602176 1 2 tcp 1000 ------- 56 4.0 5.0 27 47
+ 0.602176 2 5 tcp 1000 ------- 56 4.0 5.0 27 47
- 0.602176 2 5 tcp 1000 ------- 56 4.0 5.0 27 47
r 0.602976 1 2 tcp 1000 ------- 56 4.0 5.0 28 48
+ 0.602976 2 5 tcp 1000 ------- 56 4.0 5.0 28 48
- 0.602976 2 5 tcp 1000 ------- 56 4.0 5.0 28 48
r 0.603776 1 2 tcp 1000 ------- 56 4.0 5.0 29 49
+ 0.603776 2 5 tcp 1000 ------- 56 4.0 5.0 29 49
- 0.603776 2 5 tcp 1000 ------- 56 4.0 5.0 29 49
r 0.604576 1 2 tcp 1000 ------- 56 4.0 5.0 30 50
+ 0.604576 2 5 tcp 1000 ------- 56 4.0 5.0 30 50
- 0.604576 2 5 tcp 1000 ------- 56 4.0 5.0 30 50
r 0.605376 1 2 tcp 1000 ------- 56 4.0 5.0 31 51
+ 0.605376 2 5 tcp 1000 ------- 56 4.0 5.0 31 51
- 0.605376 2 5 tcp 1000 ------- 56 4.0 5.0 31 51
r 0.607376 2 5 tcp 1000 ------- 56 4.0 5.0 20 40
+ 0.607376 5 2 ack 40 ------- 56 5.0 4.0 20 52
- 0.607376 5 2 ack 40 ------- 56 5.0 4.0 20 52
r 0.608176 2 5 tcp 1000 ------- 56 4.0 5.0 21 41
+ 0.608176 5 2 ack 40 ------- 56 5.0 4.0 21 53
- 0.608176 5 2 ack 40 ------- 56 5.0 4.0 21 53
r 0.608976 2 5 tcp 1000 ------- 56 4.0 5.0 22 42
+ 0.608976 5 2 ack 40 ------- 56 5.0 4.0 22 54
- 0.608976 5 2 ack 40 ------- 56 5.0 4.0 22 54
r 0.609776 2 5 tcp 1000 ------- 56 4.0 5.0 23 43
+ 0.609776 5 2 ack 40 ------- 56 5.0 4.0 23 55
- 0.609776 5 2 ack 40 ------- 56 5.0 4.0 23 55
r 0.610576 2 5 tcp 1000 ------- 56 4.0 5.0 24 44
+ 0.610576 5 2 ack 40 ------- 56 5.0 4.0 24 56
- 0.610576 5 2 ack 40 ------- 56 5.0 4.0 24 56
r 0.611376 2 5 tcp 1000 ------- 56 4.0 5.0 25 45
+ 0.611376 5 2 ack 40 ------- 56 5.0 4.0 25 57
- 0.611376 5 2 ack 40 ------- 56 5.0 4.0 25 57
r 0.612176 2 5 tcp 1000 ------- 56 4.0 5.0 26 46
+ 0.612176 5 2 ack 40 ------- 56 5.0 4.0 26 58
- 0.612176 5 2 ack 40 ------- 56 5.0 4.0 26 58
r 0.612976 2 5 tcp 1000 ------- 56 4.0 5.0 27 47
+ 0.612976 5 2 ack 40 ------- 56 5.0 4.0 27 59
- 0.612976 5 2 ack 40 ------- 56 5.0 4.0 27 59
r 0.613776 2 5 tcp 1000 ------- 56 4.0 5.0 28 48
+ 0.613776 5 2 ack 40 ------- 56 5.0 4.0 28 60
- 0.613776 5 2 ack 40 ------- 56 5.0 4.0 28 60
r 0.614576 2 5 tcp 1000 ------- 56 4.0 5.0 29 49
+ 0.614576 5 2 ack 40 ------- 56 5.0 4.0 29 61
- 0.614576 5 2 ack 40 ------- 56 5.0 4.0 29 61
r 0.615376 2 5 tcp 1000 ------- 56 4.0 5.0 30 50
+ 0.615376 5 2 ack 40 ------- 56 5.0 4.0 30 62
- 0.615376 5 2 ack 40 ------- 56 5.0 4.0 30 62
r 0.616176 2 5 tcp 1000 ------- 56 4.0 5.0 31 51
+ 0.616176 5 2 ack 40 ------- 56 5.0 4.0 31 63
- 0.616176 5 2 ack 40 ------- 56 5.0 4.0 31 63
r 0.617408 5 2 ack 40 ------- 56 5.0 4.0 20 52
+ 0.617408 2 1 ack 40 ------- 56 5.0 4.0 20 52
- 0.617408 2 1 ack 40 ------- 56 5.0 4.0 20 52
r 0.618208 5 2 ack 40 ------- 56 5.0 4.0 21 53
+ 0.618208 2 1 ack 40 ------- 56 5.0 4.0 21 53
- 0.618208 2 1 ack 40 ------- 56 5.0 4.0 21 53
r 0.619008 5 2 ack 40 ------- 56 5.0 4.0 22 54
+ 0.619008 2 1 ack 40 ------- 56 5.0 4.0 22 54
- 0.619008 2 1 ack 40 ------- 56 5.0 4.0 22 54
r 0.619808 5 2 ack 40 ------- 56 5.0 4.0 23 55
+ 0.619808 2 1 ack 40 ------- 56 5.0 4.0 23 55
- 0.619808 2 1 ack 40 ------- 56 5.0 4.0 23 55
r 0.620608 5 2 ack 40 ------- 56 5.0 4.0 24 56
+ 0.620608 2 1 ack 40 ------- 56 5.0 4.0 24 56
- 0.620608 2 1 ack 40 ------- 56 5.0 4.0 24 56
r 0.621408 5 2 ack 40 ------- 56 5.0 4.0 25 57
+ 0.621408 2 1 ack 40 ------- 56 5.0 4.0 25 57
- 0.621408 2 1 ack 40 ------- 56 5.0 4.0 25 57
r 0.622208 5 2 ack 40 ------- 56 5.0 4.0 26 58
+ 0.622208 2 1 ack 40 ------- 56 5.0 4.0 26 58
- 0.622208 2 1 ack 40 ------- 56 5.0 4.0 26 58
r 0.623008 5 2 ack 40 ------- 56 5.0 4.0 27 59
+ 0.623008 2 1 ack 40 ------- 56 5.0 4.0 27 59
- 0.623008 2 1 ack 40 ------- 56 5.0 4.0 27 59
r 0.623808 5 2 ack 40 ------- 56 5.0 4.0 28 60
+ 0.623808 2 1 ack 40 ------- 56 5.0 4.0 28 60
- 0.623808 2 1 ack 40 ------- 56 5.0 4.0 28 60
r 0.624608 5 2 ack 40 ------- 56 5.0 4.0 29 61
+ 0.624608 2 1 ack 40 ------- 56 5.0 4.0 29 61
- 0.624608 2 1 ack 40 ------- 56 5.0 4.0 29 61
r 0.625408 5 2 ack 40 ------- 56 5.0 4.0 30 62
+ 0.625408 2 1 ack 40 ------- 56 5.0 4.0 30 62
- 0.625408 2 1 ack 40 ------- 56 5.0 4.0 30 62
r 0.626208 5 2 ack 40 ------- 56 5.0 4.0 31 63
+ 0.626208 2 1 ack 40 ------- 56 5.0 4.0 31 63
- 0.626208 2 1 ack 40 ------- 56 5.0 4.0 31 63
r 0.62744 2 1 ack 40 ------- 56 5.0 4.0 20 52
+ 0.62744 1 4 ack 40 ------- 56 5.0 4.0 20 52
- 0.62744 1 4 ack 40 ------- 56 5.0 4.0 20 52
r 0.62824 2 1 ack 40 ------- 56 5.0 4.0 21 53
+ 0.62824 1 4 ack 40 ------- 56 5.0 4.0 21 53
- 0.62824 1 4 ack 40 ------- 56 5.0 4.0 21 53
r 0.62904 2 1 ack 40 ------- 56 5.0 4.0 22 54
+ 0.62904 1 4 ack 40 ------- 56 5.0 4.0 22 54
- 0.62904 1 4 ack 40 ------- 56 5.0 4.0 22 54
r 0.62984 2 1 ack 40 ------- 56 5.0 4.0 23 55
+ 0.62984 1 4 ack 40 ------- 56 5.0 4.0 23 55
- 0.62984 1 4 ack 40 ------- 56 5.0 4.0 23 55
r 0.63064 2 1 ack 40 ------- 56 5.0 4.0 24 56
+ 0.63064 1 4 ack 40 ------- 56 5.0 4.0 24 56
- 0.63064 1 4 ack 40 ------- 56 5.0 4.0 24 56
r 0.63144 2 1 ack 40 ------- 56 5.0 4.0 25 57
+ 0.63144 1 4 ack 40 ------- 56 5.0 4.0 25 57
- 0.63144 1 4 ack 40 ------- 56 5.0 4.0 25 57
r 0.63224 2 1 ack 40 ------- 56 5.0 4.0 26 58
+ 0.63224 1 4 ack 40 ------- 56 5.0 4.0 26 58
- 0.63224 1 4 ack 40 ------- 56 5.0 4.0 26 58
r 0.63304 2 1 ack 40 ------- 56 5.0 4.0 27 59
+ 0.63304 1 4 ack 40 ------- 56 5.0 4.0 27 59
- 0.63304 1 4 ack 40 ------- 56 5.0 4.0 27 59
r 0.63384 2 1 ack 40 ------- 56 5.0 4.0 28 60
+ 0.63384 1 4 ack 40 ------- 56 5.0 4.0 28 60
- 0.63384 1 4 ack 40 ------- 56 5.0 4.0 28 60
r 0.63464 2 1 ack 40 ------- 56 5.0 4.0 29 61
+ 0.63464 1 4 ack 40 ------- 56 5.0 4.0 29 61
- 0.63464 1 4 ack 40 ------- 56 5.0 4.0 29 61
r 0.63544 2 1 ack 40 ------- 56 5.0 4.0 30 62
+ 0.63544 1 4 ack 40 ------- 56 5.0 4.0 30 62
- 0.63544 1 4 ack 40 ------- 56 5.0 4.0 30 62
r 0.63624 2 1 ack 40 ------- 56 5.0 4.0 31 63
+ 0.63624 1 4 ack 40 ------- 56 5.0 4.0 31 63
- 0.63624 1 4 ack 40 ------- 56 5.0 4.0 31 63
r 0.637472 1 4 ack 40 ------- 56 5.0 4.0 20 52
+ 0.637472 4 1 tcp 1000 ------- 56 4.0 5.0 32 64
- 0.637472 4 1 tcp 1000 ------- 56 4.0 5.0 32 64
r 0.638272 1 4 ack 40 ------- 56 5.0 4.0 21 53
+ 0.638272 4 1 tcp 1000 ------- 56 4.0 5.0 33 65
- 0.638272 4 1 tcp 1000 ------- 56 4.0 5.0 33 65
r 0.639072 1 4 ack 40 ------- 56 5.0 4.0 22 54
+ 0.639072 4 1 tcp 1000 ------- 56 4.0 5.0 34 66
- 0.639072 4 1 tcp 1000 ------- 56 4.0 5.0 34 66
r 0.639872 1 4 ack 40 ------- 56 5.0 4.0 23 55
+ 0.639872 4 1 tcp 1000 ------- 56 4.0 5.0 35 67
- 0.639872 4 1 tcp 1000 ------- 56 4.0 5.0 35 67
r 0.640672 1 4 ack 40 ------- 56 5.0 4.0 24 56
+ 0.640672 4 1 tcp 1000 ------- 56 4.0 5.0 36 68
- 0.640672 4 1 tcp 1000 ------- 56 4.0 5.0 36 68
r 0.641472 1 4 ack 40 ------- 56 5.0 4.0 25 57
+ 0.641472 4 1 tcp 1000 ------- 56 4.0 5.0 37 69
- 0.641472 4 1 tcp 1000 ------- 56 4.0 5.0 37 69
r 0.642272 1 4 ack 40 ------- 56 5.0 4.0 26 58
+ 0.642272 4 1 tcp 1000 ------- 56 4.0 5.0 38 70
- 0.642272 4 1 tcp 1000 ------- 56 4.0 5.0 38 70
r 0.643072 1 4 ack 40 ------- 56 5.0 4.0 27 59
+ 0.643072 4 1 tcp 1000 ------- 56 4.0 5.0 39 71
- 0.643072 4 1 tcp 1000 ------- 56 4.0 5.0 39 71
r 0.643872 1 4 ack 40 ------- 56 5.0 4.0 28 60
+ 0.643872 4 1 tcp 1000 ------- 56 4.0 5.0 40 72
- 0.643872 4 1 tcp 1000 ------- 56 4.0 5.0 40 72
r 0.644672 1 4 ack 40 ------- 56 5.0 4.0 29 61
+ 0.644672 4 1 tcp 1000 ------- 56 4.0 5.0 41 73
- 0.644672 4 1 tcp 1000 ------- 56 4.0 5.0 41 73
r 0.645472 1 4 ack 40 ------- 56 5.0 4.0 30 62
+ 0.645472 4 1 tcp 1000 ------- 56 4.0 5.0 42 74
- 0.645472 4 1 tcp 1000 ------- 56 4.0 5.0 42 74
r 0.646272 1 4 ack 40 ------- 56 5.0 4.0 31 63
+ 0.646272 4 1 tcp 1000 ------- 56 4.0 5.0 43 75
- 0.646272 4 1 tcp 1000 ------- 56 4.0 5.0 43 75
r 0.648272 4 1 tcp 1000 ------- 56 4.0 5.0 32 64
+ 0.648272 1 2 tcp 1000 ------- 56 4.0 5.0 32 64
- 0.648272 1 2 tcp 1000 ------- 56 4.0 5.0 32 64
r 0.649072 4 1 tcp 1000 ------- 56 4.0 5.0 33 65
+ 0.649072 1 2 tcp 1000 ------- 56 4.0 5.0 33 65
- 0.649072 1 2 tcp 1000 ------- 56 4.0 5.0 33 65
r 0.649872 4 1 tcp 1000 ------- 56 4.0 5.0 34 66
+ 0.649872 1 2 tcp 1000 ------- 56 4.0 5.0 34 66
- 0.649872 1 2 tcp 1000 ------- 56 4.0 5.0 34 66
r 0.650672 4 1 tcp 1000 ------- 56 4.0 5.0 35 67
+ 0.650672 1 2 tcp 1000 ------- 56 4.0 5.0 35 67
- 0.650672 1 2 tcp 1000 ------- 56 4.0 5.0 35 67
r 0.651472 4 1 tcp 1000 ------- 56 4.0 5.0 36 68
+ 0.651472 1 2 tcp 1000 ------- 56 4.0 5.0 36 68
- 0.651472 1 2 tcp 1000 ------- 56 4.0 5.0 36 68
r 0.652272 4 1 tcp 1000 ------- 56 4.0 5.0 37 69
+ 0.652272 1 2 tcp 1000 ------- 56 4.0 5.0 37 69
- 0.652272 1 2 tcp 1000 ------- 56 4.0 5.0 37 69
r 0.653072 4 1 tcp 1000 ------- 56 4.0 5.0 38 70
+ 0.653072 1 2 tcp 1000 ------- 56 4.0 5.0 38 70
- 0.653072 1 2 tcp 1000 ------- 56 4.0 5.0 38 70
r 0.653872 4 1 tcp 1000 ------- 56 4.0 5.0 39 71
+ 0.653872 1 2 tcp 1000 ------- 56 4.0 5.0 39 71
- 0.653872 1 2 tcp 1000 ------- 56 4.0 5.0 39 71
r 0.654672 4 1 tcp 1000 ------- 56 4.0 5.0 40 72
+ 0.654672 1 2 tcp 1000 ------- 56 4.0 5.0 40 72
- 0.654672 1 2 tcp 1000 ------- 56 4.0 5.0 40 72
r 0.655472 4 1 tcp 1000 ------- 56 4.0 5.0 41 73
+ 0.655472 1 2 tcp 1000 ------- 56 4.0 5.0 41 73
- 0.655472 1 2 tcp 1000 ------- 56 4.0 5.0 41 73
r 0.656272 4 1 tcp 1000 ------- 56 4.0 5.0 42 74
+ 0.656272 1 2 tcp 1000 ------- 56 4.0 5.0 42 74