+ 0.2 4 1 tcp 40 ------- 56 4.0 5.0 0 0
- 0.2 4 1 tcp 40 ------- 56 4.0 5.0 0 0
r 0.210032 4 1 tcp 40 ------- 56 4.0 5.0 0 0
+ 0.210032 1 2 tcp 40 ------- 56 4.0 5.0 0 0
- 0.210032 1 2 tcp 40 ------- 56 4.0 5.0 0 0
r 0.220064 1 2 tcp 40 ------- 56 4.0 5.0 0 0
+ 0.220064 2 5 tcp 40 ------- 56 4.0 5.0 0 0
- 0.220064 2 5 tcp 40 ------- 56 4.0 5.0 0 0
r 0.230096 2 5 tcp 40 ------- 56 4.0 5.0 0 0
+ 0.230096 5 2 ack 40 ------- 56 5.0 4.0 0 1
- 0.230096 5 2 ack 40 ------- 56 5.0 4.0 0 1
r 0.240128 5 2 ack 40 ------- 56 5.0 4.0 0 1
+ 0.240128 2 1 ack 40 ------- 56 5.0 4.0 0 1
- 0.240128 2 1 ack 40 ------- 56 5.0 4.0 0 1
r 0.25016 2 1 ack 40 ------- 56 5.0 4.0 0 1
+ 0.25016 1 4 ack 40 ------- 56 5.0 4.0 0 1
- 0.25016 1 4 ack 40 ------- 56 5.0 4.0 0 1
r 0.260192 1 4 ack 40 ------- 56 5.0 4.0 0 1
+ 0.260192 4 1 tcp 1040 ------- 56 4.0 5.0 1 2
- 0.260192 4 1 tcp 1040 ------- 56 4.0 5.0 1 2
+ 0.260192 4 1 tcp 1040 ------- 56 4.0 5.0 2 3
- 0.261024 4 1 tcp 1040 ------- 56 4.0 5.0 2 3
r 0.271024 4 1 tcp 1040 ------- 56 4.0 5.0 1 2
+ 0.271024 1 2 tcp 1040 ------- 56 4.0 5.0 1 2
- 0.271024 1 2 tcp 1040 ------- 56 4.0 5.0 1 2
r 0.271856 4 1 tcp 1040 ------- 56 4.0 5.0 2 3
+ 0.271856 1 2 tcp 1040 ------- 56 4.0 5.0 2 3
- 0.271856 1 2 tcp 1040 ------- 56 4.0 5.0 2 3
r 0.281856 1 2 tcp 1040 ------- 56 4.0 5.0 1 2
+ 0.281856 2 5 tcp 1040 ------- 56 4.0 5.0 1 2
- 0.281856 2 5 tcp 1040 ------- 56 4.0 5.0 1 2
r 0.282688 1 2 tcp 1040 ------- 56 4.0 5.0 2 3
+ 0.282688 2 5 tcp 1040 ------- 56 4.0 5.0 2 3
- 0.282688 2 5 tcp 1040 ------- 56 4.0 5.0 2 3
r 0.292688 2 5 tcp 1040 ------- 56 4.0 5.0 1 2
+ 0.292688 5 2 ack 40 ------- 56 5.0 4.0 1 4
- 0.292688 5 2 ack 40 ------- 56 5.0 4.0 1 4
r 0.29352 2 5 tcp 1040 ------- 56 4.0 5.0 2 3
+ 0.29352 5 2 ack 40 ------- 56 5.0 4.0 2 5
- 0.29352 5 2 ack 40 ------- 56 5.0 4.0 2 5
r 0.30272 5 2 ack 40 ------- 56 5.0 4.0 1 4
+ 0.30272 2 1 ack 40 ------- 56 5.0 4.0 1 4
- 0.30272 2 1 ack 40 ------- 56 5.0 4.0 1 4
r 0.303552 5 2 ack 40 ------- 56 5.0 4.0 2 5
+ 0.303552 2 1 ack 40 ------- 56 5.0 4.0 2 5
- 0.303552 2 1 ack 40 ------- 56 5.0 4.0 2 5
r 0.312752 2 1 ack 40 ------- 56 5.0 4.0 1 4
+ 0.312752 1 4 ack 40 ------- 56 5.0 4.0 1 4
- 0.312752 1 4 ack 40 ------- 56 5.0 4.0 1 4
r 0.313584 2 1 ack 40 ------- 56 5.0 4.0 2 5
+ 0.313584 1 4 ack 40 ------- 56 5.0 4.0 2 5
- 0.313584 1 4 ack 40 ------- 56 5.0 4.0 2 5
r 0.322784 1 4 ack 40 ------- 56 5.0 4.0 1 4
+ 0.322784 4 1 tcp 1040 ------- 56 4.0 5.0 3 6
- 0.322784 4 1 tcp 1040 ------- 56 4.0 5.0 3 6
+ 0.322784 4 1 tcp 1040 ------- 56 4.0 5.0 4 7
r 0.323616 1 4 ack 40 ------- 56 5.0 4.0 2 5
+ 0.323616 4 1 tcp 1040 ------- 56 4.0 5.0 5 8
+ 0.323616 4 1 tcp 1040 ------- 56 4.0 5.0 6 9
- 0.323616 4 1 tcp 1040 ------- 56 4.0 5.0 4 7
- 0.324448 4 1 tcp 1040 ------- 56 4.0 5.0 5 8
- 0.32528 4 1 tcp 1040 ------- 56 4.0 5.0 6 9
r 0.333616 4 1 tcp 1040 ------- 56 4.0 5.0 3 6
+ 0.333616 1 2 tcp 1040 ------- 56 4.0 5.0 3 6
- 0.333616 1 2 tcp 1040 ------- 56 4.0 5.0 3 6
r 0.334448 4 1 tcp 1040 ------- 56 4.0 5.0 4 7
+ 0.334448 1 2 tcp 1040 ------- 56 4.0 5.0 4 7
- 0.334448 1 2 tcp 1040 ------- 56 4.0 5.0 4 7
r 0.33528 4 1 tcp 1040 ------- 56 4.0 5.0 5 8
+ 0.33528 1 2 tcp 1040 ------- 56 4.0 5.0 5 8
- 0.33528 1 2 tcp 1040 ------- 56 4.0 5.0 5 8
r 0.336112 4 1 tcp 1040 ------- 56 4.0 5.0 6 9
+ 0.336112 1 2 tcp 1040 ------- 56 4.0 5.0 6 9
- 0.336112 1 2 tcp 1040 ------- 56 4.0 5.0 6 9
r 0.344448 1 2 tcp 1040 ------- 56 4.0 5.0 3 6
+ 0.344448 2 5 tcp 1040 ------- 56 4.0 5.0 3 6
- 0.344448 2 5 tcp 1040 ------- 56 4.0 5.0 3 6
r 0.34528 1 2 tcp 1040 ------- 56 4.0 5.0 4 7
+ 0.34528 2 5 tcp 1040 ------- 56 4.0 5.0 4 7
- 0.34528 2 5 tcp 1040 ------- 56 4.0 5.0 4 7
r 0.346112 1 2 tcp 1040 ------- 56 4.0 5.0 5 8
+ 0.346112 2 5 tcp 1040 ------- 56 4.0 5.0 5 8
- 0.346112 2 5 tcp 1040 ------- 56 4.0 5.0 5 8
r 0.346944 1 2 tcp 1040 ------- 56 4.0 5.0 6 9
+ 0.346944 2 5 tcp 1040 ------- 56 4.0 5.0 6 9
- 0.346944 2 5 tcp 1040 ------- 56 4.0 5.0 6 9
r 0.35528 2 5 tcp 1040 ------- 56 4.0 5.0 3 6
+ 0.35528 5 2 ack 40 ------- 56 5.0 4.0 3 10
- 0.35528 5 2 ack 40 ------- 56 5.0 4.0 3 10
r 0.356112 2 5 tcp 1040 ------- 56 4.0 5.0 4 7
+ 0.356112 5 2 ack 40 ------- 56 5.0 4.0 4 11
- 0.356112 5 2 ack 40 ------- 56 5.0 4.0 4 11
r 0.356944 2 5 tcp 1040 ------- 56 4.0 5.0 5 8
+ 0.356944 5 2 ack 40 ------- 56 5.0 4.0 5 12
- 0.356944 5 2 ack 40 ------- 56 5.0 4.0 5 12
r 0.357776 2 5 tcp 1040 ------- 56 4.0 5.0 6 9
+ 0.357776 5 2 ack 40 ------- 56 5.0 4.0 6 13
- 0.357776 5 2 ack 40 ------- 56 5.0 4.0 6 13
r 0.365312 5 2 ack 40 ------- 56 5.0 4.0 3 10
+ 0.365312 2 1 ack 40 ------- 56 5.0 4.0 3 10
- 0.365312 2 1 ack 40 ------- 56 5.0 4.0 3 10
r 0.366144 5 2 ack 40 ------- 56 5.0 4.0 4 11
+ 0.366144 2 1 ack 40 ------- 56 5.0 4.0 4 11
- 0.366144 2 1 ack 40 ------- 56 5.0 4.0 4 11
r 0.366976 5 2 ack 40 ------- 56 5.0 4.0 5 12
+ 0.366976 2 1 ack 40 ------- 56 5.0 4.0 5 12
- 0.366976 2 1 ack 40 ------- 56 5.0 4.0 5 12
r 0.367808 5 2 ack 40 ------- 56 5.0 4.0 6 13
+ 0.367808 2 1 ack 40 ------- 56 5.0 4.0 6 13
- 0.367808 2 1 ack 40 ------- 56 5.0 4.0 6 13
r 0.375344 2 1 ack 40 ------- 56 5.0 4.0 3 10
+ 0.375344 1 4 ack 40 ------- 56 5.0 4.0 3 10
- 0.375344 1 4 ack 40 ------- 56 5.0 4.0 3 10
r 0.376176 2 1 ack 40 ------- 56 5.0 4.0 4 11
+ 0.376176 1 4 ack 40 ------- 56 5.0 4.0 4 11
- 0.376176 1 4 ack 40 ------- 56 5.0 4.0 4 11
r 0.377008 2 1 ack 40 ------- 56 5.0 4.0 5 12
+ 0.377008 1 4 ack 40 ------- 56 5.0 4.0 5 12
- 0.377008 1 4 ack 40 ------- 56 5.0 4.0 5 12
r 0.37784 2 1 ack 40 ------- 56 5.0 4.0 6 13
+ 0.37784 1 4 ack 40 ------- 56 5.0 4.0 6 13
- 0.37784 1 4 ack 40 ------- 56 5.0 4.0 6 13
r 0.385376 1 4 ack 40 ------- 56 5.0 4.0 3 10
+ 0.385376 4 1 tcp 1040 ------- 56 4.0 5.0 7 14
- 0.385376 4 1 tcp 1040 ------- 56 4.0 5.0 7 14
+ 0.385376 4 1 tcp 1040 ------- 56 4.0 5.0 8 15
r 0.386208 1 4 ack 40 ------- 56 5.0 4.0 4 11
+ 0.386208 4 1 tcp 1040 ------- 56 4.0 5.0 9 16
+ 0.386208 4 1 tcp 1040 ------- 56 4.0 5.0 10 17
- 0.386208 4 1 tcp 1040 ------- 56 4.0 5.0 8 15
r 0.38704 1 4 ack 40 ------- 56 5.0 4.0 5 12
+ 0.38704 4 1 tcp 1040 ------- 56 4.0 5.0 11 18
+ 0.38704 4 1 tcp 1040 ------- 56 4.0 5.0 12 19
- 0.38704 4 1 tcp 1040 ------- 56 4.0 5.0 9 16
r 0.387872 1 4 ack 40 ------- 56 5.0 4.0 6 13
+ 0.387872 4 1 tcp 1040 ------- 56 4.0 5.0 13 20
+ 0.387872 4 1 tcp 1040 ------- 56 4.0 5.0 14 21
- 0.387872 4 1 tcp 1040 ------- 56 4.0 5.0 10 17
- 0.388704 4 1 tcp 1040 ------- 56 4.0 5.0 11 18
- 0.389536 4 1 tcp 1040 ------- 56 4.0 5.0 12 19
- 0.390368 4 1 tcp 1040 ------- 56 4.0 5.0 13 20
- 0.3912 4 1 tcp 1040 ------- 56 4.0 5.0 14 21
r 0.396208 4 1 tcp 1040 ------- 56 4.0 5.0 7 14
+ 0.396208 1 2 tcp 1040 ------- 56 4.0 5.0 7 14
- 0.396208 1 2 tcp 1040 ------- 56 4.0 5.0 7 14
r 0.39704 4 1 tcp 1040 ------- 56 4.0 5.0 8 15
+ 0.39704 1 2 tcp 1040 ------- 56 4.0 5.0 8 15
- 0.39704 1 2 tcp 1040 ------- 56 4.0 5.0 8 15
r 0.397872 4 1 tcp 1040 ------- 56 4.0 5.0 9 16
+ 0.397872 1 2 tcp 1040 ------- 56 4.0 5.0 9 16
- 0.397872 1 2 tcp 1040 ------- 56 4.0 5.0 9 16
r 0.398704 4 1 tcp 1040 ------- 56 4.0 5.0 10 17
+ 0.398704 1 2 tcp 1040 ------- 56 4.0 5.0 10 17
- 0.398704 1 2 tcp 1040 ------- 56 4.0 5.0 10 17
r 0.399536 4 1 tcp 1040 ------- 56 4.0 5.0 11 18
+ 0.399536 1 2 tcp 1040 ------- 56 4.0 5.0 11 18
- 0.399536 1 2 tcp 1040 ------- 56 4.0 5.0 11 18
r 0.400368 4 1 tcp 1040 ------- 56 4.0 5.0 12 19
+ 0.400368 1 2 tcp 1040 ------- 56 4.0 5.0 12 19
- 0.400368 1 2 tcp 1040 ------- 56 4.0 5.0 12 19
r 0.4012 4 1 tcp 1040 ------- 56 4.0 5.0 13 20
+ 0.4012 1 2 tcp 1040 ------- 56 4.0 5.0 13 20
- 0.4012 1 2 tcp 1040 ------- 56 4.0 5.0 13 20
r 0.402032 4 1 tcp 1040 ------- 56 4.0 5.0 14 21
+ 0.402032 1 2 tcp 1040 ------- 56 4.0 5.0 14 21
- 0.402032 1 2 tcp 1040 ------- 56 4.0 5.0 14 21
r 0.40704 1 2 tcp 1040 ------- 56 4.0 5.0 7 14
+ 0.40704 2 5 tcp 1040 ------- 56 4.0 5.0 7 14
- 0.40704 2 5 tcp 1040 ------- 56 4.0 5.0 7 14
r 0.407872 1 2 tcp 1040 ------- 56 4.0 5.0 8 15
+ 0.407872 2 5 tcp 1040 ------- 56 4.0 5.0 8 15
- 0.407872 2 5 tcp 1040 ------- 56 4.0 5.0 8 15
r 0.408704 1 2 tcp 1040 ------- 56 4.0 5.0 9 16
+ 0.408704 2 5 tcp 1040 ------- 56 4.0 5.0 9 16
- 0.408704 2 5 tcp 1040 ------- 56 4.0 5.0 9 16
r 0.409536 1 2 tcp 1040 ------- 56 4.0 5.0 10 17
+ 0.409536 2 5 tcp 1040 ------- 56 4.0 5.0 10 17
- 0.409536 2 5 tcp 1040 ------- 56 4.0 5.0 10 17
r 0.410368 1 2 tcp 1040 ------- 56 4.0 5.0 11 18
+ 0.410368 2 5 tcp 1040 ------- 56 4.0 5.0 11 18
- 0.410368 2 5 tcp 1040 ------- 56 4.0 5.0 11 18
r 0.4112 1 2 tcp 1040 ------- 56 4.0 5.0 12 19
+ 0.4112 2 5 tcp 1040 ------- 56 4.0 5.0 12 19
- 0.4112 2 5 tcp 1040 ------- 56 4.0 5.0 12 19
r 0.412032 1 2 tcp 1040 ------- 56 4.0 5.0 13 20
+ 0.412032 2 5 tcp 1040 ------- 56 4.0 5.0 13 20
- 0.412032 2 5 tcp 1040 ------- 56 4.0 5.0 13 20
r 0.412864 1 2 tcp 1040 ------- 56 4.0 5.0 14 21
+ 0.412864 2 5 tcp 1040 ------- 56 4.0 5.0 14 21
- 0.412864 2 5 tcp 1040 ------- 56 4.0 5.0 14 21
r 0.417872 2 5 tcp 1040 ------- 56 4.0 5.0 7 14
+ 0.417872 5 2 ack 40 ------- 56 5.0 4.0 7 22
- 0.417872 5 2 ack 40 ------- 56 5.0 4.0 7 22
r 0.418704 2 5 tcp 1040 ------- 56 4.0 5.0 8 15
+ 0.418704 5 2 ack 40 ------- 56 5.0 4.0 8 23
- 0.418704 5 2 ack 40 ------- 56 5.0 4.0 8 23
r 0.419536 2 5 tcp 1040 ------- 56 4.0 5.0 9 16
+ 0.419536 5 2 ack 40 ------- 56 5.0 4.0 9 24
- 0.419536 5 2 ack 40 ------- 56 5.0 4.0 9 24
r 0.420368 2 5 tcp 1040 ------- 56 4.0 5.0 10 17
+ 0.420368 5 2 ack 40 ------- 56 5.0 4.0 10 25
- 0.420368 5 2 ack 40 ------- 56 5.0 4.0 10 25
r 0.4212 2 5 tcp 1040 ------- 56 4.0 5.0 11 18
+ 0.4212 5 2 ack 40 ------- 56 5.0 4.0 11 26
- 0.4212 5 2 ack 40 ------- 56 5.0 4.0 11 26
r 0.422032 2 5 tcp 1040 ------- 56 4.0 5.0 12 19
+ 0.422032 5 2 ack 40 ------- 56 5.0 4.0 12 27
- 0.422032 5 2 ack 40 ------- 56 5.0 4.0 12 27
r 0.422864 2 5 tcp 1040 ------- 56 4.0 5.0 13 20
+ 0.422864 5 2 ack 40 ------- 56 5.0 4.0 13 28
- 0.422864 5 2 ack 40 ------- 56 5.0 4.0 13 28
r 0.423696 2 5 tcp 1040 ------- 56 4.0 5.0 14 21
+ 0.423696 5 2 ack 40 ------- 56 5.0 4.0 14 29
- 0.423696 5 2 ack 40 ------- 56 5.0 4.0 14 29
r 0.427904 5 2 ack 40 ------- 56 5.0 4.0 7 22
+ 0.427904 2 1 ack 40 ------- 56 5.0 4.0 7 22
- 0.427904 2 1 ack 40 ------- 56 5.0 4.0 7 22
r 0.428736 5 2 ack 40 ------- 56 5.0 4.0 8 23
+ 0.428736 2 1 ack 40 ------- 56 5.0 4.0 8 23
- 0.428736 2 1 ack 40 ------- 56 5.0 4.0 8 23
r 0.429568 5 2 ack 40 ------- 56 5.0 4.0 9 24
+ 0.429568 2 1 ack 40 ------- 56 5.0 4.0 9 24
- 0.429568 2 1 ack 40 ------- 56 5.0 4.0 9 24
r 0.4304 5 2 ack 40 ------- 56 5.0 4.0 10 25
+ 0.4304 2 1 ack 40 ------- 56 5.0 4.0 10 25
- 0.4304 2 1 ack 40 ------- 56 5.0 4.0 10 25
r 0.431232 5 2 ack 40 ------- 56 5.0 4.0 11 26
+ 0.431232 2 1 ack 40 ------- 56 5.0 4.0 11 26
- 0.431232 2 1 ack 40 ------- 56 5.0 4.0 11 26
r 0.432064 5 2 ack 40 ------- 56 5.0 4.0 12 27
+ 0.432064 2 1 ack 40 ------- 56 5.0 4.0 12 27
- 0.432064 2 1 ack 40 ------- 56 5.0 4.0 12 27
r 0.432896 5 2 ack 40 ------- 56 5.0 4.0 13 28
+ 0.432896 2 1 ack 40 ------- 56 5.0 4.0 13 28
- 0.432896 2 1 ack 40 ------- 56 5.0 4.0 13 28
r 0.433728 5 2 ack 40 ------- 56 5.0 4.0 14 29
+ 0.433728 2 1 ack 40 ------- 56 5.0 4.0 14 29
- 0.433728 2 1 ack 40 ------- 56 5.0 4.0 14 29
r 0.437936 2 1 ack 40 ------- 56 5.0 4.0 7 22
+ 0.437936 1 4 ack 40 ------- 56 5.0 4.0 7 22
- 0.437936 1 4 ack 40 ------- 56 5.0 4.0 7 22
r 0.438768 2 1 ack 40 ------- 56 5.0 4.0 8 23
+ 0.438768 1 4 ack 40 ------- 56 5.0 4.0 8 23
- 0.438768 1 4 ack 40 ------- 56 5.0 4.0 8 23
r 0.4396 2 1 ack 40 ------- 56 5.0 4.0 9 24
+ 0.4396 1 4 ack 40 ------- 56 5.0 4.0 9 24
- 0.4396 1 4 ack 40 ------- 56 5.0 4.0 9 24
r 0.440432 2 1 ack 40 ------- 56 5.0 4.0 10 25
+ 0.440432 1 4 ack 40 ------- 56 5.0 4.0 10 25
- 0.440432 1 4 ack 40 ------- 56 5.0 4.0 10 25
r 0.441264 2 1 ack 40 ------- 56 5.0 4.0 11 26
+ 0.441264 1 4 ack 40 ------- 56 5.0 4.0 11 26
- 0.441264 1 4 ack 40 ------- 56 5.0 4.0 11 26
r 0.442096 2 1 ack 40 ------- 56 5.0 4.0 12 27
+ 0.442096 1 4 ack 40 ------- 56 5.0 4.0 12 27
- 0.442096 1 4 ack 40 ------- 56 5.0 4.0 12 27
r 0.442928 2 1 ack 40 ------- 56 5.0 4.0 13 28
+ 0.442928 1 4 ack 40 ------- 56 5.0 4.0 13 28
- 0.442928 1 4 ack 40 ------- 56 5.0 4.0 13 28
r 0.44376 2 1 ack 40 ------- 56 5.0 4.0 14 29
+ 0.44376 1 4 ack 40 ------- 56 5.0 4.0 14 29
- 0.44376 1 4 ack 40 ------- 56 5.0 4.0 14 29
r 0.447968 1 4 ack 40 ------- 56 5.0 4.0 7 22
+ 0.447968 4 1 tcp 1040 ------- 56 4.0 5.0 15 30
- 0.447968 4 1 tcp 1040 ------- 56 4.0 5.0 15 30
+ 0.447968 4 1 tcp 1040 ------- 56 4.0 5.0 16 31
r 0.4488 1 4 ack 40 ------- 56 5.0 4.0 8 23
+ 0.4488 4 1 tcp 1040 ------- 56 4.0 5.0 17 32
+ 0.4488 4 1 tcp 1040 ------- 56 4.0 5.0 18 33
- 0.4488 4 1 tcp 1040 ------- 56 4.0 5.0 16 31
r 0.449632 1 4 ack 40 ------- 56 5.0 4.0 9 24
+ 0.449632 4 1 tcp 1040 ------- 56 4.0 5.0 19 34
+ 0.449632 4 1 tcp 1040 ------- 56 4.0 5.0 20 35
- 0.449632 4 1 tcp 1040 ------- 56 4.0 5.0 17 32
r 0.450464 1 4 ack 40 ------- 56 5.0 4.0 10 25
+ 0.450464 4 1 tcp 1040 ------- 56 4.0 5.0 21 36
+ 0.450464 4 1 tcp 1040 ------- 56 4.0 5.0 22 37
- 0.450464 4 1 tcp 1040 ------- 56 4.0 5.0 18 33
r 0.451296 1 4 ack 40 ------- 56 5.0 4.0 11 26
+ 0.451296 4 1 tcp 1040 ------- 56 4.0 5.0 23 38
+ 0.451296 4 1 tcp 1040 ------- 56 4.0 5.0 24 39
- 0.451296 4 1 tcp 1040 ------- 56 4.0 5.0 19 34
r 0.452128 1 4 ack 40 ------- 56 5.0 4.0 12 27
+ 0.452128 4 1 tcp 1040 ------- 56 4.0 5.0 25 40
+ 0.452128 4 1 tcp 1040 ------- 56 4.0 5.0 26 41
- 0.452128 4 1 tcp 1040 ------- 56 4.0 5.0 20 35
r 0.45296 1 4 ack 40 ------- 56 5.0 4.0 13 28
+ 0.45296 4 1 tcp 1040 ------- 56 4.0 5.0 27 42
+ 0.45296 4 1 tcp 1040 ------- 56 4.0 5.0 28 43
- 0.45296 4 1 tcp 1040 ------- 56 4.0 5.0 21 36
r 0.453792 1 4 ack 40 ------- 56 5.0 4.0 14 29
+ 0.453792 4 1 tcp 1040 ------- 56 4.0 5.0 29 44
+ 0.453792 4 1 tcp 1040 ------- 56 4.0 5.0 30 45
- 0.453792 4 1 tcp 1040 ------- 56 4.0 5.0 22 37
- 0.454624 4 1 tcp 1040 ------- 56 4.0 5.0 23 38
- 0.455456 4 1 tcp 1040 ------- 56 4.0 5.0 24 39
- 0.456288 4 1 tcp 1040 ------- 56 4.0 5.0 25 40
- 0.45712 4 1 tcp 1040 ------- 56 4.0 5.0 26 41
- 0.457952 4 1 tcp 1040 ------- 56 4.0 5.0 27 42
- 0.458784 4 1 tcp 1040 ------- 56 4.0 5.0 28 43
r 0.4588 4 1 tcp 1040 ------- 56 4.0 5.0 15 30
+ 0.4588 1 2 tcp 1040 ------- 56 4.0 5.0 15 30
- 0.4588 1 2 tcp 1040 ------- 56 4.0 5.0 15 30
- 0.459616 4 1 tcp 1040 ------- 56 4.0 5.0 29 44
r 0.459632 4 1 tcp 1040 ------- 56 4.0 5.0 16 31
+ 0.459632 1 2 tcp 1040 ------- 56 4.0 5.0 16 31
- 0.459632 1 2 tcp 1040 ------- 56 4.0 5.0 16 31
- 0.460448 4 1 tcp 1040 ------- 56 4.0 5.0 30 45
r 0.460464 4 1 tcp 1040 ------- 56 4.0 5.0 17 32
+ 0.460464 1 2 tcp 1040 ------- 56 4.0 5.0 17 32
- 0.460464 1 2 tcp 1040 ------- 56 4.0 5.0 17 32
r 0.461296 4 1 tcp 1040 ------- 56 4.0 5.0 18 33
+ 0.461296 1 2 tcp 1040 ------- 56 4.0 5.0 18 33
- 0.461296 1 2 tcp 1040 ------- 56 4.0 5.0 18 33
r 0.462128 4 1 tcp 1040 ------- 56 4.0 5.0 19 34
+ 0.462128 1 2 tcp 1040 ------- 56 4.0 5.0 19 34
- 0.462128 1 2 tcp 1040 ------- 56 4.0 5.0 19 34
r 0.46296 4 1 tcp 1040 ------- 56 4.0 5.0 20 35
+ 0.46296 1 2 tcp 1040 ------- 56 4.0 5.0 20 35
- 0.46296 1 2 tcp 1040 ------- 56 4.0 5.0 20 35
r 0.463792 4 1 tcp 1040 ------- 56 4.0 5.0 21 36
+ 0.463792 1 2 tcp 1040 ------- 56 4.0 5.0 21 36
- 0.463792 1 2 tcp 1040 ------- 56 4.0 5.0 21 36
r 0.464624 4 1 tcp 1040 ------- 56 4.0 5.0 22 37
+ 0.464624 1 2 tcp 1040 ------- 56 4.0 5.0 22 37
- 0.464624 1 2 tcp 1040 ------- 56 4.0 5.0 22 37
r 0.465456 4 1 tcp 1040 ------- 56 4.0 5.0 23 38
+ 0.465456 1 2 tcp 1040 ------- 56 4.0 5.0 23 38
- 0.465456 1 2 tcp 1040 ------- 56 4.0 5.0 23 38
r 0.466288 4 1 tcp 1040 ------- 56 4.0 5.0 24 39
+ 0.466288 1 2 tcp 1040 ------- 56 4.0 5.0 24 39
- 0.466288 1 2 tcp 1040 ------- 56 4.0 5.0 24 39
r 0.46712 4 1 tcp 1040 ------- 56 4.0 5.0 25 40
+ 0.46712 1 2 tcp 1040 ------- 56 4.0 5.0 25 40
- 0.46712 1 2 tcp 1040 ------- 56 4.0 5.0 25 40
r 0.467952 4 1 tcp 1040 ------- 56 4.0 5.0 26 41
+ 0.467952 1 2 tcp 1040 ------- 56 4.0 5.0 26 41
- 0.467952 1 2 tcp 1040 ------- 56 4.0 5.0 26 41
r 0.468784 4 1 tcp 1040 ------- 56 4.0 5.0 27 42
+ 0.468784 1 2 tcp 1040 ------- 56 4.0 5.0 27 42
- 0.468784 1 2 tcp 1040 ------- 56 4.0 5.0 27 42
r 0.469616 4 1 tcp 1040 ------- 56 4.0 5.0 28 43
+ 0.469616 1 2 tcp 1040 ------- 56 4.0 5.0 28 43
- 0.469616 1 2 tcp 1040 ------- 56 4.0 5.0 28 43
r 0.469632 1 2 tcp 1040 ------- 56 4.0 5.0 15 30
+ 0.469632 2 5 tcp 1040 ------- 56 4.0 5.0 15 30
- 0.469632 2 5 tcp 1040 ------- 56 4.0 5.0 15 30
r 0.470448 4 1 tcp 1040 ------- 56 4.0 5.0 29 44
+ 0.470448 1 2 tcp 1040 ------- 56 4.0 5.0 29 44
- 0.470448 1 2 tcp 1040 ------- 56 4.0 5.0 29 44
r 0.470464 1 2 tcp 1040 ------- 56 4.0 5.0 16 31
+ 0.470464 2 5 tcp 1040 ------- 56 4.0 5.0 16 31
- 0.470464 2 5 tcp 1040 ------- 56 4.0 5.0 16 31
r 0.47128 4 1 tcp 1040 ------- 56 4.0 5.0 30 45
+ 0.47128 1 2 tcp 1040 ------- 56 4.0 5.0 30 45
- 0.47128 1 2 tcp 1040 ------- 56 4.0 5.0 30 45
r 0.471296 1 2 tcp 1040 ------- 56 4.0 5.0 17 32
+ 0.471296 2 5 tcp 1040 ------- 56 4.0 5.0 17 32
- 0.471296 2 5 tcp 1040 ------- 56 4.0 5.0 17 32
r 0.472128 1 2 tcp 1040 ------- 56 4.0 5.0 18 33
+ 0.472128 2 5 tcp 1040 ------- 56 4.0 5.0 18 33
- 0.472128 2 5 tcp 1040 ------- 56 4.0 5.0 18 33
r 0.47296 1 2 tcp 1040 ------- 56 4.0 5.0 19 34
+ 0.47296 2 5 tcp 1040 ------- 56 4.0 5.0 19 34
- 0.47296 2 5 tcp 1040 ------- 56 4.0 5.0 19 34
r 0.473792 1 2 tcp 1040 ------- 56 4.0 5.0 20 35
+ 0.473792 2 5 tcp 1040 ------- 56 4.0 5.0 20 35
- 0.473792 2 5 tcp 1040 ------- 56 4.0 5.0 20 35
r 0.474624 1 2 tcp 1040 ------- 56 4.0 5.0 21 36
+ 0.474624 2 5 tcp 1040 ------- 56 4.0 5.0 21 36
- 0.474624 2 5 tcp 1040 ------- 56 4.0 5.0 21 36
r 0.475456 1 2 tcp 1040 ------- 56 4.0 5.0 22 37
+ 0.475456 2 5 tcp 1040 ------- 56 4.0 5.0 22 37
- 0.475456 2 5 tcp 1040 ------- 56 4.0 5.0 22 37
r 0.476288 1 2 tcp 1040 ------- 56 4.0 5.0 23 38
+ 0.476288 2 5 tcp 1040 ------- 56 4.0 5.0 23 38
- 0.476288 2 5 tcp 1040 ------- 56 4.0 5.0 23 38
r 0.47712 1 2 tcp 1040 ------- 56 4.0 5.0 24 39
+ 0.47712 2 5 tcp 1040 ------- 56 4.0 5.0 24 39
- 0.47712 2 5 tcp 1040 ------- 56 4.0 5.0 24 39
r 0.477952 1 2 tcp 1040 ------- 56 4.0 5.0 25 40
+ 0.477952 2 5 tcp 1040 ------- 56 4.0 5.0 25 40
- 0.477952 2 5 tcp 1040 ------- 56 4.0 5.0 25 40
r 0.478784 1 2 tcp 1040 ------- 56 4.0 5.0 26 41
+ 0.478784 2 5 tcp 1040 ------- 56 4.0 5.0 26 41
- 0.478784 2 5 tcp 1040 ------- 56 4.0 5.0 26 41
r 0.479616 1 2 tcp 1040 ------- 56 4.0 5.0 27 42
+ 0.479616 2 5 tcp 1040 ------- 56 4.0 5.0 27 42
- 0.479616 2 5 tcp 1040 ------- 56 4.0 5.0 27 42
r 0.480448 1 2 tcp 1040 ------- 56 4.0 5.0 28 43
+ 0.480448 2 5 tcp 1040 ------- 56 4.0 5.0 28 43
- 0.480448 2 5 tcp 1040 ------- 56 4.0 5.0 28 43
r 0.480464 2 5 tcp 1040 ------- 56 4.0 5.0 15 30
+ 0.480464 5 2 ack 40 ------- 56 5.0 4.0 15 46
- 0.480464 5 2 ack 40 ------- 56 5.0 4.0 15 46
r 0.48128 1 2 tcp 1040 ------- 56 4.0 5.0 29 44
+ 0.48128 2 5 tcp 1040 ------- 56 4.0 5.0 29 44
- 0.48128 2 5 tcp 1040 ------- 56 4.0 5.0 29 44
r 0.481296 2 5 tcp 1040 ------- 56 4.0 5.0 16 31
+ 0.481296 5 2 ack 40 ------- 56 5.0 4.0 16 47
- 0.481296 5 2 ack 40 ------- 56 5.0 4.0 16 47
r 0.482112 1 2 tcp 1040 ------- 56 4.0 5.0 30 45
+ 0.482112 2 5 tcp 1040 ------- 56 4.0 5.0 30 45
- 0.482112 2 5 tcp 1040 ------- 56 4.0 5.0 30 45
r 0.482128 2 5 tcp 1040 ------- 56 4.0 5.0 17 32
+ 0.482128 5 2 ack 40 ------- 56 5.0 4.0 17 48
- 0.482128 5 2 ack 40 ------- 56 5.0 4.0 17 48
r 0.48296 2 5 tcp 1040 ------- 56 4.0 5.0 18 33
+ 0.48296 5 2 ack 40 ------- 56 5.0 4.0 18 49
- 0.48296 5 2 ack 40 ------- 56 5.0 4.0 18 49
r 0.483792 2 5 tcp 1040 ------- 56 4.0 5.0 19 34
+ 0.483792 5 2 ack 40 ------- 56 5.0 4.0 19 50
- 0.483792 5 2 ack 40 ------- 56 5.0 4.0 19 50
r 0.484624 2 5 tcp 1040 ------- 56 4.0 5.0 20 35
+ 0.484624 5 2 ack 40 ------- 56 5.0 4.0 20 51
- 0.484624 5 2 ack 40 ------- 56 5.0 4.0 20 51
r 0.485456 2 5 tcp 1040 ------- 56 4.0 5.0 21 36
+ 0.485456 5 2 ack 40 ------- 56 5.0 4.0 21 52
- 0.485456 5 2 ack 40 ------- 56 5.0 4.0 21 52
r 0.486288 2 5 tcp 1040 ------- 56 4.0 5.0 22 37
+ 0.486288 5 2 ack 40 ------- 56 5.0 4.0 22 53
- 0.486288 5 2 ack 40 ------- 56 5.0 4.0 22 53
r 0.48712 2 5 tcp 1040 ------- 56 4.0 5.0 23 38
+ 0.48712 5 2 ack 40 ------- 56 5.0 4.0 23 54
- 0.48712 5 2 ack 40 ------- 56 5.0 4.0 23 54
r 0.487952 2 5 tcp 1040 ------- 56 4.0 5.0 24 39
+ 0.487952 5 2 ack 40 ------- 56 5.0 4.0 24 55
- 0.487952 5 2 ack 40 ------- 56 5.0 4.0 24 55
r 0.488784 2 5 tcp 1040 ------- 56 4.0 5.0 25 40
+ 0.488784 5 2 ack 40 ------- 56 5.0 4.0 25 56
- 0.488784 5 2 ack 40 ------- 56 5.0 4.0 25 56
r 0.489616 2 5 tcp 1040 ------- 56 4.0 5.0 26 41
+ 0.489616 5 2 ack 40 ------- 56 5.0 4.0 26 57
- 0.489616 5 2 ack 40 ------- 56 5.0 4.0 26 57
r 0.490448 2 5 tcp 1040 ------- 56 4.0 5.0 27 42
+ 0.490448 5 2 ack 40 ------- 56 5.0 4.0 27 58
- 0.490448 5 2 ack 40 ------- 56 5.0 4.0 27 58
r 0.490496 5 2 ack 40 ------- 56 5.0 4.0 15 46
+ 0.490496 2 1 ack 40 ------- 56 5.0 4.0 15 46
- 0.490496 2 1 ack 40 ------- 56 5.0 4.0 15 46
r 0.49128 2 5 tcp 1040 ------- 56 4.0 5.0 28 43
+ 0.49128 5 2 ack 40 ------- 56 5.0 4.0 28 59
- 0.49128 5 2 ack 40 ------- 56 5.0 4.0 28 59
r 0.491328 5 2 ack 40 ------- 56 5.0 4.0 16 47
+ 0.491328 2 1 ack 40 ------- 56 5.0 4.0 16 47
- 0.491328 2 1 ack 40 ------- 56 5.0 4.0 16 47
r 0.492112 2 5 tcp 1040 ------- 56 4.0 5.0 29 44
+ 0.492112 5 2 ack 40 ------- 56 5.0 4.0 29 60
- 0.492112 5 2 ack 40 ------- 56 5.0 4.0 29 60
r 0.49216 5 2 ack 40 ------- 56 5.0 4.0 17 48
+ 0.49216 2 1 ack 40 ------- 56 5.0 4.0 17 48
- 0.49216 2 1 ack 40 ------- 56 5.0 4.0 17 48
r 0.492944 2 5 tcp 1040 ------- 56 4.0 5.0 30 45
+ 0.492944 5 2 ack 40 ------- 56 5.0 4.0 30 61
- 0.492944 5 2 ack 40 ------- 56 5.0 4.0 30 61
r 0.492992 5 2 ack 40 ------- 56 5.0 4.0 18 49
+ 0.492992 2 1 ack 40 ------- 56 5.0 4.0 18 49
- 0.492992 2 1 ack 40 ------- 56 5.0 4.0 18 49
r 0.493824 5 2 ack 40 ------- 56 5.0 4.0 19 50
+ 0.493824 2 1 ack 40 ------- 56 5.0 4.0 19 50
- 0.493824 2 1 ack 40 ------- 56 5.0 4.0 19 50
r 0.494656 5 2 ack 40 ------- 56 5.0 4.0 20 51
+ 0.494656 2 1 ack 40 ------- 56 5.0 4.0 20 51
- 0.494656 2 1 ack 40 ------- 56 5.0 4.0 20 51
r 0.495488 5 2 ack 40 ------- 56 5.0 4.0 21 52
+ 0.495488 2 1 ack 40 ------- 56 5.0 4.0 21 52
- 0.495488 2 1 ack 40 ------- 56 5.0 4.0 21 52
r 0.49632 5 2 ack 40 ------- 56 5.0 4.0 22 53
+ 0.49632 2 1 ack 40 ------- 56 5.0 4.0 22 53
- 0.49632 2 1 ack 40 ------- 56 5.0 4.0 22 53
r 0.497152 5 2 ack 40 ------- 56 5.0 4.0 23 54
+ 0.497152 2 1 ack 40 ------- 56 5.0 4.0 23 54
- 0.497152 2 1 ack 40 ------- 56 5.0 4.0 23 54
r 0.497984 5 2 ack 40 ------- 56 5.0 4.0 24 55
+ 0.497984 2 1 ack 40 ------- 56 5.0 4.0 24 55
- 0.497984 2 1 ack 40 ------- 56 5.0 4.0 24 55
r 0.498816 5 2 ack 40 ------- 56 5.0 4.0 25 56
+ 0.498816 2 1 ack 40 ------- 56 5.0 4.0 25 56
- 0.498816 2 1 ack 40 ------- 56 5.0 4.0 25 56
r 0.499648 5 2 ack 40 ------- 56 5.0 4.0 26 57
+ 0.499648 2 1 ack 40 ------- 56 5.0 4.0 26 57
- 0.499648 2 1 ack 40 ------- 56 5.0 4.0 26 57
r 0.50048 5 2 ack 40 ------- 56 5.0 4.0 27 58
+ 0.50048 2 1 ack 40 ------- 56 5.0 4.0 27 58
- 0.50048 2 1 ack 40 ------- 56 5.0 4.0 27 58
r 0.500528 2 1 ack 40 ------- 56 5.0 4.0 15 46
+ 0.500528 1 4 ack 40 ------- 56 5.0 4.0 15 46
- 0.500528 1 4 ack 40 ------- 56 5.0 4.0 15 46
r 0.501312 5 2 ack 40 ------- 56 5.0 4.0 28 59
+ 0.501312 2 1 ack 40 ------- 56 5.0 4.0 28 59
- 0.501312 2 1 ack 40 ------- 56 5.0 4.0 28 59
r 0.50136 2 1 ack 40 ------- 56 5.0 4.0 16 47
+ 0.50136 1 4 ack 40 ------- 56 5.0 4.0 16 47
- 0.50136 1 4 ack 40 ------- 56 5.0 4.0 16 47
r 0.502144 5 2 ack 40 ------- 56 5.0 4.0 29 60
+ 0.502144 2 1 ack 40 ------- 56 5.0 4.0 29 60
- 0.502144 2 1 ack 40 ------- 56 5.0 4.0 29 60
r 0.502192 2 1 ack 40 ------- 56 5.0 4.0 17 48
+ 0.502192 1 4 ack 40 ------- 56 5.0 4.0 17 48
- 0.502192 1 4 ack 40 ------- 56 5.0 4.0 17 48
r 0.502976 5 2 ack 40 ------- 56 5.0 4.0 30 61
+ 0.502976 2 1 ack 40 ------- 56 5.0 4.0 30 61
- 0.502976 2 1 ack 40 ------- 56 5.0 4.0 30 61
r 0.503024 2 1 ack 40 ------- 56 5.0 4.0 18 49
+ 0.503024 1 4 ack 40 ------- 56 5.0 4.0 18 49
- 0.503024 1 4 ack 40 ------- 56 5.0 4.0 18 49
r 0.503856 2 1 ack 40 ------- 56 5.0 4.0 19 50
+ 0.503856 1 4 ack 40 ------- 56 5.0 4.0 19 50
- 0.503856 1 4 ack 40 ------- 56 5.0 4.0 19 50
r 0.504688 2 1 ack 40 ------- 56 5.0 4.0 20 51
+ 0.504688 1 4 ack 40 ------- 56 5.0 4.0 20 51
- 0.504688 1 4 ack 40 ------- 56 5.0 4.0 20 51
r 0.50552 2 1 ack 40 ------- 56 5.0 4.0 21 52
+ 0.50552 1 4 ack 40 ------- 56 5.0 4.0 21 52
- 0.50552 1 4 ack 40 ------- 56 5.0 4.0 21 52
r 0.506352 2 1 ack 40 ------- 56 5.0 4.0 22 53
+ 0.506352 1 4 ack 40 ------- 56 5.0 4.0 22 53
- 0.506352 1 4 ack 40 ------- 56 5.0 4.0 22 53
r 0.507184 2 1 ack 40 ------- 56 5.0 4.0 23 54
+ 0.507184 1 4 ack 40 ------- 56 5.0 4.0 23 54
- 0.507184 1 4 ack 40 ------- 56 5.0 4.0 23 54
r 0.508016 2 1 ack 40 ------- 56 5.0 4.0 24 55
+ 0.508016 1 4 ack 40 ------- 56 5.0 4.0 24 55
- 0.508016 1 4 ack 40 ------- 56 5.0 4.0 24 55
r 0.508848 2 1 ack 40 ------- 56 5.0 4.0 25 56
+ 0.508848 1 4 ack 40 ------- 56 5.0 4.0 25 56
- 0.508848 1 4 ack 40 ------- 56 5.0 4.0 25 56
r 0.50968 2 1 ack 40 ------- 56 5.0 4.0 26 57
+ 0.50968 1 4 ack 40 ------- 56 5.0 4.0 26 57
- 0.50968 1 4 ack 40 ------- 56 5.0 4.0 26 57
r 0.510512 2 1 ack 40 ------- 56 5.0 4.0 27 58
+ 0.510512 1 4 ack 40 ------- 56 5.0 4.0 27 58
- 0.510512 1 4 ack 40 ------- 56 5.0 4.0 27 58
r 0.51056 1 4 ack 40 ------- 56 5.0 4.0 15 46
+ 0.51056 4 1 tcp 1040 ------- 56 4.0 5.0 31 62
- 0.51056 4 1 tcp 1040 ------- 56 4.0 5.0 31 62
+ 0.51056 4 1 tcp 1040 ------- 56 4.0 5.0 32 63
r 0.511344 2 1 ack 40 ------- 56 5.0 4.0 28 59
+ 0.511344 1 4 ack 40 ------- 56 5.0 4.0 28 59
- 0.511344 1 4 ack 40 ------- 56 5.0 4.0 28 59
r 0.511392 1 4 ack 40 ------- 56 5.0 4.0 16 47
+ 0.511392 4 1 tcp 1040 ------- 56 4.0 5.0 33 64
+ 0.511392 4 1 tcp 1040 ------- 56 4.0 5.0 34 65
- 0.511392 4 1 tcp 1040 ------- 56 4.0 5.0 32 63
r 0.512176 2 1 ack 40 ------- 56 5.0 4.0 29 60
+ 0.512176 1 4 ack 40 ------- 56 5.0 4.0 29 60
- 0.512176 1 4 ack 40 ------- 56 5.0 4.0 29 60
r 0.512224 1 4 ack 40 ------- 56 5.0 4.0 17 48
+ 0.512224 4 1 tcp 1040 ------- 56 4.0 5.0 35 66
+ 0.512224 4 1 tcp 1040 ------- 56 4.0 5.0 36 67
- 0.512224 4 1 tcp 1040 ------- 56 4.0 5.0 33 64
r 0.513008 2 1 ack 40 ------- 56 5.0 4.0 30 61
+ 0.513008 1 4 ack 40 ------- 56 5.0 4.0 30 61
- 0.513008 1 4 ack 40 ------- 56 5.0 4.0 30 61
r 0.513056 1 4 ack 40 ------- 56 5.0 4.0 18 49
+ 0.513056 4 1 tcp 1040 ------- 56 4.0 5.0 37 68
+ 0.513056 4 1 tcp 1040 ------- 56 4.0 5.0 38 69
- 0.513056 4 1 tcp 1040 ------- 56 4.0 5.0 34 65
r 0.513888 1 4 ack 40 ------- 56 5.0 4.0 19 50
+ 0.513888 4 1 tcp 1040 ------- 56 4.0 5.0 39 70
- 0.513888 4 1 tcp 1040 ------- 56 4.0 5.0 35 66
r 0.51472 1 4 ack 40 ------- 56 5.0 4.0 20 51
+ 0.51472 4 1 tcp 1040 ------- 56 4.0 5.0 40 71
- 0.51472 4 1 tcp 1040 ------- 56 4.0 5.0 36 67
r 0.515552 1 4 ack 40 ------- 56 5.0 4.0 21 52
+ 0.515552 4 1 tcp 1040 ------- 56 4.0 5.0 41 72
- 0.515552 4 1 tcp 1040 ------- 56 4.0 5.0 37 68
r 0.516384 1 4 ack 40 ------- 56 5.0 4.0 22 53
+ 0.516384 4 1 tcp 1040 ------- 56 4.0 5.0 42 73
- 0.516384 4 1 tcp 1040 ------- 56 4.0 5.0 38 69
r 0.517216 1 4 ack 40 ------- 56 5.0 4.0 23 54
+ 0.517216 4 1 tcp 1040 ------- 56 4.0 5.0 43 74
- 0.517216 4 1 tcp 1040 ------- 56 4.0 5.0 39 70
r 0.518048 1 4 ack 40 ------- 56 5.0 4.0 24 55
+ 0.518048 4 1 tcp 1040 ------- 56 4.0 5.0 44 75
- 0.518048 4 1 tcp 1040 ------- 56 4.0 5.0 40 71
r 0.51888 1 4 ack 40 ------- 56 5.0 4.0 25 56
+ 0.51888 4 1 tcp 1040 ------- 56 4.0 5.0 45 76
- 0.51888 4 1 tcp 1040 ------- 56 4.0 5.0 41 72
r 0.519712 1 4 ack 40 ------- 56 5.0 4.0 26 57
+ 0.519712 4 1 tcp 1040 ------- 56 4.0 5.0 46 77
- 0.519712 4 1 tcp 1040 ------- 56 4.0 5.0 42 73
r 0.520544 1 4 ack 40 ------- 56 5.0 4.0 27 58
+ 0.520544 4 1 tcp 1040 ------- 56 4.0 5.0 47 78
- 0.520544 4 1 tcp 1040 ------- 56 4.0 5.0 43 74
r 0.521376 1 4 ack 40 ------- 56 5.0 4.0 28 59
+ 0.521376 4 1 tcp 1040 ------- 56 4.0 5.0 48 79
- 0.521376 4 1 tcp 1040 ------- 56 4.0 5.0 44 75
r 0.521392 4 1 tcp 1040 ------- 56 4.0 5.0 31 62
+ 0.521392 1 2 tcp 1040 ------- 56 4.0 5.0 31 62
- 0.521392 1 2 tcp 1040 ------- 56 4.0 5.0 31 62
r 0.522208 1 4 ack 40 ------- 56 5.0 4.0 29 60
+ 0.522208 4 1 tcp 1040 ------- 56 4.0 5.0 49 80
- 0.522208 4 1 tcp 1040 ------- 56 4.0 5.0 45 76
r 0.522224 4 1 tcp 1040 ------- 56 4.0 5.0 32 63
+ 0.522224 1 2 tcp 1040 ------- 56 4.0 5.0 32 63
- 0.522224 1 2 tcp 1040 ------- 56 4.0 5.0 32 63
r 0.52304 1 4 ack 40 ------- 56 5.0 4.0 30 61
+ 0.52304 4 1 tcp 1040 ------- 56 4.0 5.0 50 81
- 0.52304 4 1 tcp 1040 ------- 56 4.0 5.0 46 77
r 0.523056 4 1 tcp 1040 ------- 56 4.0 5.0 33 64
+ 0.523056 1 2 tcp 1040 ------- 56 4.0 5.0 33 64
- 0.523056 1 2 tcp 1040 ------- 56 4.0 5.0 33 64
- 0.523872 4 1 tcp 1040 ------- 56 4.0 5.0 47 78
r 0.523888 4 1 tcp 1040 ------- 56 4.0 5.0 34 65
+ 0.523888 1 2 tcp 1040 ------- 56 4.0 5.0 34 65
- 0.523888 1 2 tcp 1040 ------- 56 4.0 5.0 34 65
- 0.524704 4 1 tcp 1040 ------- 56 4.0 5.0 48 79
r 0.52472 4 1 tcp 1040 ------- 56 4.0 5.0 35 66
+ 0.52472 1 2 tcp 1040 ------- 56 4.0 5.0 35 66
- 0.52472 1 2 tcp 1040 ------- 56 4.0 5.0 35 66
- 0.525536 4 1 tcp 1040 ------- 56 4.0 5.0 49 80
r 0.525552 4 1 tcp 1040 ------- 56 4.0 5.0 36 67
+ 0.525552 1 2 tcp 1040 ------- 56 4.0 5.0 36 67
- 0.525552 1 2 tcp 1040 ------- 56 4.0 5.0 36 67
- 0.526368 4 1 tcp 1040 ------- 56 4.0 5.0 50 81
r 0.526384 4 1 tcp 1040 ------- 56 4.0 5.0 37 68
+ 0.526384 1 2 tcp 1040 ------- 56 4.0 5.0 37 68
- 0.526384 1 2 tcp 1040 ------- 56 4.0 5.0 37 68
r 0.527216 4 1 tcp 1040 ------- 56 4.0 5.0 38 69
+ 0.527216 1 2 tcp 1040 ------- 56 4.0 5.0 38 69
- 0.527216 1 2 tcp 1040 ------- 56 4.0 5.0 38 69
r 0.528048 4 1 tcp 1040 ------- 56 4.0 5.0 39 70
+ 0.528048 1 2 tcp 1040 ------- 56 4.0 5.0 39 70
- 0.528048 1 2 tcp 1040 ------- 56 4.0 5.0 39 70
r 0.52888 4 1 tcp 1040 ------- 56 4.0 5.0 40 71
+ 0.52888 1 2 tcp 1040 ------- 56 4.0 5.0 40 71
- 0.52888 1 2 tcp 1040 ------- 56 4.0 5.0 40 71
r 0.529712 4 1 tcp 1040 ------- 56 4.0 5.0 41 72
+ 0.529712 1 2 tcp 1040 ------- 56 4.0 5.0 41 72
- 0.529712 1 2 tcp 1040 ------- 56 4.0 5.0 41 72
r 0.530544 4 1 tcp 1040 ------- 56 4.0 5.0 42 73